   This run of MOLCAS is using the pymolcas driver

                             OPE
                             OPE          NMOL  CASOP  ENMOLC A   SO
                 OPE        NMOLC        AS  OP EN  MO LC     AS  OP
                OPENM       OL CA        SO  PE NM  OL CA     SOP EN
                OP EN      MO   LC       AS  OP ENMOL  CASO   PENMOL
                OP  EN     MO   LC       AS  OP EN     MO     LC ASO
               OP   E  NMOL  C  AS       OP  EN MO     LC     AS  OP
               OP  E   NMO   LC AS        OPEN  MO     LCASOP EN   M
               O  PEN   MO  LCA  SO
            OPE   NMO   L   CAS    OP
        OPENMOL  CASOP     ENMOL   CASOPE
     OPENMOLCA   SOPENMOLCASOPEN   MOLCASOPE
    OPENMOLCAS   OP           EN   MOL    CAS
    OPENMOLCAS       OP  ENM        O     LCA
    OPENMOLCAS    OPEN  MOLCASO     P  E  NMO
    OPENMOLCAS     OP               E  N  MOL
    OPENMOLCA   SO           PENM   O  L  CAS    OPEN    MO    LCAS
    OPENMOLCA   SOP           ENM   O  L  CAS   OP  EN  MOLC  AS   O
    OPENMOLCA   SOPE           NM      O  LCA   S      OP  EN MO
    OPENMOLC                AS         O  PEN   M      OL  CA  SOPE
    OPENMO        LCASOPE  NMOL        C  ASO   P      ENMOLC     AS
    OPE     NMO      LCA  SO     P     E   NM   OL  CA SO  PE N   MO
          OPENMOLCA            SOPE   NMO        LCAS  O    P  ENMO
     OPENMOLCASOPENMOLCASOPENMOLCASOPENMOLCA
        OPENMOLCASOPENMOLCASOPENMOLCASOPE
            OPENMOLCASOPENMOLCASOPENM
               OPENMOLCASOPENMOLCA        version 17.0
                   OPENMOLCASO
                       OPE                tag o171030-1800-dirty

 OpenMolcas is free software; you can redistribute it and/or modify it
 under the terms of the GNU Lesser General Public License version 2.1.
 OpenMolcas is distributed in the hope that it will be useful, but it
 is provided "as is" and without any express or implied warranties.
 For more details see the full text of the license in the file
 LICENSE or in <http://www.gnu.org/licenses/>.

                 Copyright (C) The OpenMolcas Authors
           For the author list and the recommended citation,
                   consult the file CONTRIBUTORS.md

           *************************************************
           * pymolcas version py2.05                       *
           *   build 941238a576f203fce0074eac2dbf6692      *
           *   (after the EMIL interpreter by V. Veryazov) *
           *************************************************

configuration info
------------------
C Compiler ID: Intel
C flags: -std=gnu99
Fortran Compiler ID: Intel
Fortran flags: -fpp -i8 -r8 -heap-arrays
Definitions: _MOLCAS_;_I8_;_LINUX_;_GA_;_MOLCAS_MPP_;SCALAPACK;_MKL_
Parallel: ON (GA=ON)


   -------------------------------------------------------------------
  |
  |           Project: 01_phenol_def2svpd
  |    Submitted from: /scratch/molcas_jobs/01_phenol_def2svpd
  |      Scratch area: /scratch/molcas_jobs/scratch/01_phenol_def2svpd
  |   Save outputs to: /scratch/molcas_jobs/01_phenol_def2svpd
  |            Molcas: /scratch/programme/openmolcas_ompi165_ga54b
  |
  | Scratch area is NOT empty
  |
  |    MOLCAS_DRIVER = /user/johannes/bin/pymolcas
  |   MOLCAS_LICENSE = /scratch/programme/openmolcas_ompi165_ga54b
  |    MOLCAS_MOLDEN = ON
  |    MOLCAS_NPROCS = 1
  |     MOLCAS_PRINT = 2
  |    MOLCAS_SOURCE = /scratch/programme/openmolcas_ompi165_ga54b
  | MOLCAS_STRUCTURE = 0
  |
   -------------------------------------------------------------------

++ ---------   Input file   ---------

>>> EXPORT backup_path = /scratch/molcas_jobs/01_phenol_def2svpd/backup/10_foreach_zmat

>>> COPY /scratch/molcas_jobs/01_phenol_def2svpd/backup/09_rasscf_zmat/01_phenol_def2svpd.RasOrb $Project.RasOrb

>>> FOREACH STEP IN (0..20)

  >>> EVAL DIST = 1.0+($STEP*0.1)

  &GATEWAY
       xbas
        def2-svpd
       zmat
        c1
        c2     1 1.379097
        c3     2 1.391070  1 119.781
        c4     3 1.386465  2 120.470    1 0.000
        c5     4 1.392740  3 119.122    2 0.000
        c6     1 1.387390  2 120.435    3 0.000
        o7     1 1.379220  2 122.768    3 180.000
        h8     7 $DIST     1 108.448    2 45.027
        h9     2 1.075145  1 120.168    6 180.000
        h10    3 1.073274  2 119.261    1 180.000
        h11    4 1.072047  3 120.428    2 180.000
        h12    5 1.073369  4 120.038    3 180.000
        h13    6 1.072107  1 119.178    2 180.000
       end of z-matrix
       ricd

  &SEWARD
        doanalytical

  &RASSCF
        charge
         0
        spin
         1
        fileorb
         $Project.RasOrb
        ciroot
         3 3 1

  >>> COPY $Project.JobIph JOB001

  &RASSI

  >>> RM JOB001

  &ALASKA
       nac
        1 2

  &ALASKA
       nac
        1 3

  &ALASKA
       nac
        2 3

  >>> COPY $Project.RasOrb $backup_path/$Project.$STEP.RasOrb

  >>> COPY $Project.rasscf.molden $backup_path/$Project.rasscf.$STEP.molden

  >>> COPY $Project.JobIph $backup_path/$Project.$STEP.JobIph

  >>> COPY $Project.rassi.h5 $backup_path/$Project.rassi.$STEP.h5

>>> END FOREACH

-- ----------------------------------

>>> EXPORT backup_path = /scratch/molcas_jobs/01_phenol_def2svpd/backup/10_foreach_zmat

>>> COPY /scratch/molcas_jobs/01_phenol_def2svpd/backup/09_rasscf_zmat/01_phenol_def2svpd.RasOrb 01_phenol_def2svpd.RasOrb

>>> EXPORT STEP = 0

>>> EVAL DIST = 1.0+(0*0.1) = 1.0

--- Start Module: gateway at Fri Nov  8 10:10:05 2019 ---
 
()()()()()()()()()()()()()()()()()()()()()()()()()()()()()()()()()()()()()()()()()()()()()()()()()()

                                              &GATEWAY

                       only a single process is used, running in SERIAL mode
                       available to each process: 8.0 GB of memory, 1 thread
()()()()()()()()()()()()()()()()()()()()()()()()()()()()()()()()()()()()()()()()()()()()()()()()()()
 
 
++    Symmetry information:
      ---------------------
 
                    Character Table for C1 
 
                             E  
                    a        1  x, y, xy, Rz, z, xz, Ry, yz, Rx, I
--
 
 
++    Basis set information:
      ----------------------
 
 
      Basis set label: C.DEF2-SVPD.....
 
      Electronic valence basis set:
      ------------------
      Associated Effective Charge  6.000000 au
      Associated Actual Charge     6.000000 au
      Nuclear Model: Point charge
 
      Shell  nPrim  nBasis  Cartesian Spherical Contaminant
         s       8       4        X                  
         p       4       2        X                  
         d       2       2                 X         
 
 
      Basis set label: O.DEF2-SVPD.....
 
      Electronic valence basis set:
      ------------------
      Associated Effective Charge  8.000000 au
      Associated Actual Charge     8.000000 au
      Nuclear Model: Point charge
 
      Shell  nPrim  nBasis  Cartesian Spherical Contaminant
         s       8       4        X                  
         p       5       3        X                  
         d       2       2                 X         
 
 
      Basis set label: H.DEF2-SVPD.....
 
      Electronic valence basis set:
      ------------------
      Associated Effective Charge  1.000000 au
      Associated Actual Charge     1.000000 au
      Nuclear Model: Point charge
 
      Shell  nPrim  nBasis  Cartesian Spherical Contaminant
         s       4       2        X                  
         p       2       2        X                  
--
 
 
++    Molecular structure info:
      -------------------------
 
                    ************************************************ 
                    **** Cartesian Coordinates / Bohr, Angstrom **** 
                    ************************************************ 
 
     Center  Label                x              y              z                     x              y              z
        1      C1               0.000000       0.000000       0.000000              0.000000       0.000000       0.000000
        2      C2               0.000000       0.000000       2.606116              0.000000       0.000000       1.379097
        3      C3               2.281564       0.000000       3.911775              1.207352       0.000000       2.070022
        4      C4               4.556302       0.000000       2.611708              2.411091       0.000000       1.382056
        5      C5               4.527501       0.000000      -0.020031              2.395850       0.000000      -0.010600
        6      C6               2.260516       0.000000      -1.328094              1.196214       0.000000      -0.702797
        7      O7              -2.191597       0.000000      -1.410656             -1.159743       0.000000      -0.746487
        8      H8              -3.380165       1.268168      -0.668954             -1.788706       0.671085      -0.353995
        9      H9              -1.756543       0.000000       3.627135             -0.929523       0.000000       1.919397
       10      H10              2.263157       0.000000       5.939885              1.197611       0.000000       3.143252
       11      H11              6.313882       0.000000       3.619221              3.341162       0.000000       1.915209
       12      H12              6.272235       0.000000      -1.054538              3.319124       0.000000      -0.558037
       13      H13              2.216072       0.000000      -3.353595              1.172695       0.000000      -1.774646
 
                    *************************************** 
                    *    InterNuclear Distances / Bohr    * 
                    *************************************** 
 
               1 C1            2 C2            3 C3            4 C4            5 C5            6 C6    
    1 C1       0.000000
    2 C2       2.606116        0.000000
    3 C3       4.528523        2.628741        0.000000
    4 C4       5.251752        4.556305        2.620039        0.000000
    5 C5       4.527545        5.234015        4.528061        2.631897        0.000000
    6 C6       2.621787        4.537393        5.239911        4.559898        2.617297        0.000000
    7 O7       2.606348        4.575757        6.952514        7.855798        6.861495        4.452879
    8 H8       3.671684        4.874408        7.392328        8.680928        8.034957        5.818935
    9 H9       4.030081        2.031730        4.048127        6.393989        7.265744        6.378955
   10 H10      6.356423        4.029380        2.028194        4.041692        6.375568        7.267980
   11 H11      7.277628        6.394645        4.042917        2.025875        4.054049        6.395756
   12 H12      6.360265        7.262321        6.371006        4.047936        2.028373        4.021034
   13 H13      4.019649        6.358390        7.265665        6.407926        4.056519        2.025989
 
               7 O7            8 H8            9 H9           10 H10          11 H11          12 H12   
    7 O7       0.000000
    8 H8       1.889726        0.000000
    9 H9       5.056542        4.764534        0.000000
   10 H10      8.595074        8.782488        4.637543        0.000000
   11 H11      9.881439       10.675732        8.070429        4.668389        0.000000
   12 H12      8.471320        9.742984        9.294048        8.061926        4.673944        0.000000
   13 H13      4.816904        6.335094        8.031953        9.293600        8.087781        4.662415
 
              13 H13   
   13 H13      0.000000
 
                    ******************************************* 
                    *    InterNuclear Distances / Angstrom    * 
                    ******************************************* 
 
               1 C1            2 C2            3 C3            4 C4            5 C5            6 C6    
    1 C1       0.000000
    2 C2       1.379097        0.000000
    3 C3       2.396391        1.391070        0.000000
    4 C4       2.779108        2.411093        1.386465        0.000000
    5 C5       2.395874        2.769721        2.396147        1.392740        0.000000
    6 C6       1.387390        2.401085        2.772842        2.412994        1.385014        0.000000
    7 O7       1.379220        2.421387        3.679112        4.157109        3.630947        2.356362
    8 H8       1.942972        2.579425        3.911851        4.593749        4.251916        3.079248
    9 H9       2.132627        1.075145        2.142176        3.383554        3.844866        3.375597
   10 H10      3.363674        2.132256        1.073274        2.138771        3.373805        3.846049
   11 H11      3.851155        3.383900        2.139419        1.072047        2.145310        3.384488
   12 H12      3.365707        3.843055        3.371391        2.142075        1.073369        2.127840
   13 H13      2.127106        3.364715        3.844824        3.390928        2.146617        1.072107
 
               7 O7            8 H8            9 H9           10 H10          11 H11          12 H12   
    7 O7       0.000000
    8 H8       1.000000        0.000000
    9 H9       2.675807        2.521283        0.000000
   10 H10      4.548317        4.647493        2.454082        0.000000
   11 H11      5.229032        5.649354        4.270687        2.470405        0.000000
   12 H12      4.482830        5.155765        4.918198        4.266188        2.473345        0.000000
   13 H13      2.548996        3.352387        4.250326        4.917961        4.279870        2.467244
 
              13 H13   
   13 H13      0.000000
 
                    ************************************** 
                    *    Valence Bond Angles / Degree    * 
                    ************************************** 
                          Atom centers                 Phi
                      2 C2       1 C1       6 C6       120.44
                      2 C2       1 C1       7 O7       122.77
                      6 C6       1 C1       7 O7       116.80
                      1 C1       2 C2       3 C3       119.78
                      1 C1       2 C2       9 H9       120.17
                      3 C3       2 C2       9 H9       120.05
                      2 C2       3 C3       4 C4       120.47
                      2 C2       3 C3      10 H10      119.26
                      4 C4       3 C3      10 H10      120.27
                      3 C3       4 C4       5 C5       119.12
                      3 C3       4 C4      11 H11      120.43
                      5 C5       4 C4      11 H11      120.45
                      4 C4       5 C5       6 C6       120.61
                      4 C4       5 C5      12 H12      120.04
                      6 C6       5 C5      12 H12      119.35
                      1 C1       6 C6       5 C5       119.58
                      1 C1       6 C6      13 H13      119.18
                      5 C5       6 C6      13 H13      121.24
                      1 C1       7 O7       8 H8       108.45
 
           ***************************************************************
           *              Valence Dihedral Angles / Degree               *
           ***************************************************************
                    Atom centers                       Phi1     Phi2     Theta 
           6 C6       1 C1       2 C2       9 H9        120.44   120.17  -180.00
           7 O7       1 C1       2 C2       9 H9        122.77   120.17     0.00
           2 C2       1 C1       6 C6       5 C5        120.44   119.58     0.00
           2 C2       1 C1       6 C6      13 H13       120.44   119.18  -180.00
           7 O7       1 C1       6 C6      13 H13       116.80   119.18     0.00
           2 C2       1 C1       7 O7       8 H8        122.77   108.45    45.03
           6 C6       1 C1       7 O7       8 H8        116.80   108.45  -134.97
           3 C3       2 C2       1 C1       6 C6        119.78   120.44     0.00
           3 C3       2 C2       1 C1       7 O7        119.78   122.77  -180.00
           1 C1       2 C2       3 C3       4 C4        119.78   120.47     0.00
           1 C1       2 C2       3 C3      10 H10       119.78   119.26  -180.00
           9 H9       2 C2       3 C3      10 H10       120.05   119.26     0.00
           4 C4       3 C3       2 C2       9 H9        120.47   120.05  -180.00
           2 C2       3 C3       4 C4       5 C5        120.47   119.12     0.00
           2 C2       3 C3       4 C4      11 H11       120.47   120.43  -180.00
          10 H10      3 C3       4 C4      11 H11       120.27   120.43     0.00
           5 C5       4 C4       3 C3      10 H10       119.12   120.27  -180.00
           3 C3       4 C4       5 C5       6 C6        119.12   120.61     0.00
           3 C3       4 C4       5 C5      12 H12       119.12   120.04  -180.00
          11 H11      4 C4       5 C5      12 H12       120.45   120.04     0.00
           6 C6       5 C5       4 C4      11 H11       120.61   120.45  -180.00
           4 C4       5 C5       6 C6      13 H13       120.61   121.24  -180.00
          12 H12      5 C5       6 C6      13 H13       119.35   121.24     0.00
           5 C5       6 C6       1 C1       7 O7        119.58   116.80  -180.00
           1 C1       6 C6       5 C5       4 C4        119.58   120.61     0.00
           1 C1       6 C6       5 C5      12 H12       119.58   119.35  -180.00
--
 
 
            Nuclear Potential Energy            272.02839852 au
 
--- Stop Module: gateway at Fri Nov  8 10:10:05 2019 /rc=_RC_ALL_IS_WELL_ ---
*** files: 01_phenol_def2svpd.RICDLib xmldump
    saved to directory /scratch/molcas_jobs/01_phenol_def2svpd

--- Start Module: seward at Fri Nov  8 10:10:05 2019 ---
 
()()()()()()()()()()()()()()()()()()()()()()()()()()()()()()()()()()()()()()()()()()()()()()()()()()

                                              &SEWARD

                       only a single process is used, running in SERIAL mode
                       available to each process: 8.0 GB of memory, 1 thread
()()()()()()()()()()()()()()()()()()()()()()()()()()()()()()()()()()()()()()()()()()()()()()()()()()
 
               SEWARD will generate:
                  Multipole Moment integrals up to order  2
                  Kinetic Energy integrals
                  Nuclear Attraction integrals (point charge)
                  One-Electron Hamiltonian integrals
                  Velocity integrals
                  RI decomposed two-electron repulsion integrals stored Cholesky style
                   - acCD auxiliary basis
                   - CD Threshold:   0.10E-03
 
                   Integrals are discarded if absolute value <: 0.10E-13
                   Integral cutoff threshold is set to       <: 0.10E-15
 
            Nuclear Potential Energy            272.02839852 au
 
 
      Basis set specifications :
      Symmetry species         a  
      Basis functions          191
 
 
  Input file to MOLDEN was generated!
 
--- Stop Module: seward at Fri Nov  8 10:10:08 2019 /rc=_RC_ALL_IS_WELL_ ---
*** files: 01_phenol_def2svpd.GssOrb 01_phenol_def2svpd.guessorb.h5 01_phenol_def2svpd.guessorb.molden xmldump
    saved to directory /scratch/molcas_jobs/01_phenol_def2svpd
--- Module seward spent 2 seconds ---

--- Start Module: rasscf at Fri Nov  8 10:10:08 2019 ---
 
()()()()()()()()()()()()()()()()()()()()()()()()()()()()()()()()()()()()()()()()()()()()()()()()()()

                                              &RASSCF

                       only a single process is used, running in SERIAL mode
                       available to each process: 8.0 GB of memory, 1 thread
()()()()()()()()()()()()()()()()()()()()()()()()()()()()()()()()()()()()()()()()()()()()()()()()()()
 
 
      Header of the ONEINT file:
      --------------------------
      
      Integrals generated by seward 4.2.0  , Fri Nov  8 10:10:06 2019
 
 
      OrdInt status: non-squared
 
 
      Cartesian coordinates in Angstrom:
      -----------------------------------------------------
      No.  Label        X            Y            Z        
      -----------------------------------------------------
       1   C1         0.00000000   0.00000000   0.00000000
       2   C2         0.00000000   0.00000000   1.37909700
       3   C3         1.20735168   0.00000000   2.07002223
       4   C4         2.41109095   0.00000000   1.38205643
       5   C5         2.39585020   0.00000000  -0.01060018
       6   C6         1.19621375   0.00000000  -0.70279704
       7   O7        -1.15974337   0.00000000  -0.74648719
       8   H8        -1.78870644   0.67108546  -0.35399545
       9   H9        -0.92952264   0.00000000   1.91939732
      10   H10        1.19761108   0.00000000   3.14325203
      11   H11        3.34116236   0.00000000   1.91520927
      12   H12        3.31912356   0.00000000  -0.55803723
      13   H13        1.17269491   0.00000000  -1.77464604
      -----------------------------------------------------
      Nuclear repulsion energy =  272.02839852
 
++    Wave function specifications:
      -----------------------------
 
      Number of closed shell electrons          38
      Number of electrons in active shells      12
      Max number of holes in RAS1 space          0
      Max nr of electrons in RAS3 space          0
      Number of inactive orbitals               19
      Number of active orbitals                 11
      Number of secondary orbitals             161
      Spin quantum number                      0.0
      State symmetry                             1
--
 
++    Orbital specifications:
      -----------------------
 
      Symmetry species                           1
                                                 a
      Frozen orbitals                            0
      Inactive orbitals                         19
      Active orbitals                           11
      RAS1 orbitals                              0
      RAS2 orbitals                             11
      RAS3 orbitals                              0
      Secondary orbitals                       161
      Deleted orbitals                           0
      Number of basis functions                191
--
 
++    CI expansion specifications:
      ----------------------------
 
      Number of CSFs                         60984
      Number of determinants                106953
      Number of root(s) required                 3
      Root chosen for geometry opt.              3
      CI roots used                              1     2     3
      weights                                0.333 0.333 0.333
      highest root included in the CI            3
      max. size of the explicit Hamiltonian    200
--
 
++    Optimization specifications:
      ----------------------------
 
      RASSCF algorithm: LK RI/DF
      Maximum number of macro iterations       200
      Maximum number of SX iterations          100
      Threshold for RASSCF energy            0.100E-07
      Threshold for max MO rotation          0.100E+00
      Threshold for max BLB element          0.100E-03
      Level shift parameter                  0.500E+00
      Make Quasi-Newton update
--
 
      The MO-coefficients are taken from the file:
      /scratch/molcas_jobs/01_phenol_def2svpd/01_phenol_def2svpd.RasOrb                                                               
      Title: RASSCF average (pseudo-natural) orbitals                                      
 
      Total molecular charge    0.00
 
      ************************************************************************************************************************
      *                                                                                                                      *
      *                                            Wave function control section                                             *
      *                                                                                                                      *
      ************************************************************************************************************************
 
 
                                         RASSCF iterations: Energy and convergence statistics
                                         ----------------------------------------------------
 
      Iter CI   SX   CI       RASSCF       Energy    max ROT     max BLB   max BLB  Level Ln srch  Step   QN   Walltime
          iter iter root      energy       change     param      element    value   shift minimum  type update hh:mm:ss
 Nr of preliminary CI iterations:   7
        1   1    6    0  -305.30440122    0.00E+00  -0.37E-03   30 113 1 -0.10E-03*  0.30   0.00    SX    NO    0:00:07
        2   1    5    0  -305.30440173   -0.51E-06* -0.20E-03   30  46 1  0.53E-04   0.30   0.00    SX    NO    0:00:02
        3   1    5    0  -305.30440182   -0.93E-07* -0.11E-03   30  46 1  0.29E-04   0.30   0.00    SX    NO    0:00:02
        4  11    5    0  -305.30440776   -0.59E-05*  0.26E-03   30 113 1  0.45E-04   0.30   0.00    SX    NO    0:00:06
        5   4    5    0  -305.30440786   -0.11E-06* -0.60E-03   17 102 1 -0.24E-04   0.30   2.00    QN   YES    0:00:03
        6   7    5    0  -305.30440792   -0.56E-07*  0.99E-04   24 135 1  0.30E-04   0.30   0.69    QN   YES    0:00:05
        7   4    5    0  -305.30440794   -0.25E-07* -0.97E-04   17 102 1 -0.97E-05   0.30   1.00    QN   YES    0:00:04
        8   1    4    0  -305.30440795   -0.47E-08  -0.67E-04   30  38 1  0.39E-05   0.30   2.50    QN   YES    0:00:02
      Convergence after  8 iterations
        9   3    4    0  -305.30440795   -0.27E-08  -0.67E-04    9  30 1 -0.28E-05   0.30   2.50    QN   YES    0:00:03
 
      ************************************************************************************************************************
                                                      Wave function printout:
                       occupation of active orbitals, and spin coupling of open shells (u,d: Spin up or down)
      ************************************************************************************************************************
 
      Note: transformation to natural orbitals
      has been made, which may change the order of the CSFs.
 
      printout of CI-coefficients larger than  0.05 for root  1
      energy=    -305.444321
      conf/sym  11111111111     Coeff  Weight
           913  22202020200  -0.93206 0.86874
          1648  20222020200   0.08366 0.00700
          3852  2220udud200   0.06372 0.00406
          3853  2220uudd200  -0.06516 0.00425
          7244  22u02du02d0   0.05321 0.00283
         11406  22200022200   0.13922 0.01938
         13173  22u0d02u2d0   0.07490 0.00561
         13213  22u0d02u20d  -0.05242 0.00275
         16693  22002020220   0.08276 0.00685
         16733  220020202ud  -0.07547 0.00570
         22148  22u0u02d2d0  -0.10154 0.01031
         22187  22u0u02d20d   0.07499 0.00562
 
      printout of CI-coefficients larger than  0.05 for root  2
      energy=    -305.258818
      conf/sym  11111111111     Coeff  Weight
           907  2220202ud00  -0.07917 0.00627
           915  222020ud200  -0.12528 0.01569
          3854  2220u02d200   0.08452 0.00714
          3856  2220u0d2200   0.12050 0.01452
          3886  2220u0202d0  -0.39897 0.15918
          3888  2220u0du2d0   0.05630 0.00317
          3910  2220u0d0220  -0.07425 0.00551
          3941  2220u02020d   0.37644 0.14171
          3943  2220u0du20d  -0.08681 0.00754
          3965  2220u0d02ud   0.06611 0.00437
          7214  22u0202d200   0.62626 0.39220
          7216  22u020d2200   0.06486 0.00421
          7248  22u020du2d0  -0.14281 0.02039
          7301  22u0202020d  -0.24768 0.06135
          7303  22u020du20d   0.08056 0.00649
          7325  22u020d02ud   0.06218 0.00387
         10154  20u2202d200   0.05464 0.00299
         11403  22200u2d200   0.11065 0.01224
         13153  22u0du2d200   0.06209 0.00386
         13170  22u0du202d0  -0.12462 0.01553
         13210  22u0du2020d   0.09214 0.00849
         16653  22002u2d200  -0.11549 0.01334
         16713  2200202u20d   0.06163 0.00380
         29493  22u0022d200  -0.05572 0.00311
 
      printout of CI-coefficients larger than  0.05 for root  3
      energy=    -305.210085
      conf/sym  11111111111     Coeff  Weight
           935  222020u02d0  -0.07393 0.00547
           957  22202020u0d   0.10480 0.01098
           965  222020u020d  -0.12583 0.01583
          1167  2u2d2020u0d  -0.07010 0.00491
          3886  2220u0202d0   0.08604 0.00740
          3941  2220u02020d  -0.09011 0.00812
          3943  2220u0du20d  -0.05304 0.00281
          7214  22u0202d200  -0.19708 0.03884
          7246  22u020202d0  -0.28262 0.07988
          7301  22u0202020d  -0.81054 0.65697
          7325  22u020d02ud   0.05190 0.00269
          7339  22u02020udd   0.05440 0.00296
          7349  22u020u02dd  -0.08624 0.00744
         10241  20u2202020d  -0.06929 0.00480
         13213  22u0d02u20d  -0.08277 0.00685
         16693  22002020220  -0.05309 0.00282
         16733  220020202ud  -0.05808 0.00337
         16788  22002020202   0.07214 0.00520
         22187  22u0u02d20d   0.06507 0.00423
         29547  22u0002220d   0.11554 0.01335
         33788  2200u02u2dd   0.07024 0.00493
 
      Natural orbitals and occupation numbers for root  1
      sym 1:   1.995471   1.975606   1.906286   0.024656   1.903486   0.035428   1.964321   0.099583   1.989401   0.096644
               0.009118
 
      Natural orbitals and occupation numbers for root  2
      sym 1:   1.993818   1.974648   1.354471   0.025690   1.550596   0.099176   1.872391   0.665243   1.986040   0.461613
               0.016312
 
      Natural orbitals and occupation numbers for root  3
      sym 1:   1.995484   1.968839   1.115331   0.032003   1.877318   0.037416   1.918582   0.093466   1.955767   0.110817
               0.894976
 
      ************************************************************************************************************************
      *                                                                                                                      *
      *                                                    Final results                                                     *
      *                                                                                                                      *
      ************************************************************************************************************************
 
 
++    Wave function specifications:
      -----------------------------
 
      Number of closed shell electrons          38
      Number of electrons in active shells      12
      Max number of holes in RAS1 space          0
      Max nr of electrons in RAS3 space          0
      Number of inactive orbitals               19
      Number of active orbitals                 11
      Number of secondary orbitals             161
      Spin quantum number                      0.0
      State symmetry                             1
--
 
++    Orbital specifications:
      -----------------------
 
      Symmetry species                           1
                                                 a
      Frozen orbitals                            0
      Inactive orbitals                         19
      Active orbitals                           11
      RAS1 orbitals                              0
      RAS2 orbitals                             11
      RAS3 orbitals                              0
      Secondary orbitals                       161
      Deleted orbitals                           0
      Number of basis functions                191
--
 
++    CI expansion specifications:
      ----------------------------
 
      Number of CSFs                         60984
      Number of determinants                106953
      Number of root(s) required                 3
      CI roots used                              1     2     3
      weights                                0.333 0.333 0.333
      highest root included in the CI            3
      Root passed to geometry opt.               3
--
 
++    Final optimization conditions:
      ------------------------------
 
      Average CI energy                            -305.30440795
      RASSCF energy for state  3                   -305.21008516
      Super-CI energy                                -0.00000000
      RASSCF energy change                            0.00000000
      Max change in MO coefficients               0.992E-04
      Max non-diagonal density matrix element    -0.672E-04
      Maximum BLB matrix element                 -0.282E-05
      (orbital pair   9,  30 in symmetry   1)
      Norm of electronic gradient            0.170E+00
--
 
 
      Final state energy(ies):
      ------------------------
 
::    RASSCF root number  1 Total energy:   -305.44432065
::    RASSCF root number  2 Total energy:   -305.25881805
::    RASSCF root number  3 Total energy:   -305.21008516
 
++    Molecular orbitals:
      -------------------
 
      Pseudonatural active orbitals and approximate occupation numbers
 
 
 
 
      Molecular orbitals for symmetry species 1: a  
 
 
      Orbital            1         2         3         4         5         6         7         8         9        10
      Energy      -20.6118  -11.3019  -11.2460  -11.2448  -11.2435  -11.2432  -11.2393   -1.1751   -1.0949   -1.0237
      Occ. No.      2.0000    2.0000    2.0000    2.0000    2.0000    2.0000    2.0000    2.0000    2.0000    2.0000
 
    1 C1    1s      0.0000    0.9900    0.0014   -0.0094    0.0055    0.0004   -0.0095   -0.1282   -0.0442    0.0227
    2 C1    1s     -0.0007    0.0487    0.0010   -0.0019    0.0012    0.0001   -0.0021    0.2493    0.0878   -0.0464
    3 C1    1s      0.0514   -0.1555   -0.0202    0.0403   -0.0441   -0.0463    0.0640   -0.0429   -0.0193    0.0174
    4 C1    1s     -0.0204   -0.0849   -0.0093    0.0013   -0.0039   -0.0097    0.0004   -0.0155   -0.1139    0.0213
    5 C1    2px     0.0005   -0.0006    0.0001   -0.0001    0.0001   -0.0001   -0.0006    0.0902    0.0226    0.0529
    6 C1    2px     0.0129   -0.0118    0.0096    0.0152   -0.0059   -0.0121    0.0123    0.0590    0.0294    0.0331
    7 C1    2py    -0.0000    0.0000    0.0000    0.0000   -0.0000   -0.0000   -0.0000   -0.0022   -0.0034   -0.0031
    8 C1    2py     0.0002    0.0001   -0.0009    0.0004    0.0000    0.0004    0.0006    0.0016    0.0074   -0.0001
    9 C1    2pz     0.0003   -0.0003    0.0001   -0.0006    0.0003    0.0001    0.0002    0.0449   -0.0229   -0.1255
   10 C1    2pz     0.0048   -0.0104    0.0066   -0.0025   -0.0136    0.0016    0.0175    0.0252   -0.0193   -0.0473
   11 C1    3d2-   -0.0000   -0.0000    0.0000    0.0000   -0.0000   -0.0000   -0.0000    0.0004    0.0016   -0.0001
   12 C1    3d2-    0.0016   -0.0016    0.0017   -0.0009    0.0010   -0.0022   -0.0011   -0.0032   -0.0057    0.0042
   13 C1    3d1-   -0.0000   -0.0000    0.0000   -0.0000    0.0000   -0.0000   -0.0000    0.0005    0.0007   -0.0002
   14 C1    3d1-    0.0006   -0.0013    0.0009   -0.0006    0.0005   -0.0011   -0.0008   -0.0007   -0.0021    0.0011
   15 C1    3d0    -0.0001    0.0004    0.0001   -0.0005    0.0003    0.0000   -0.0000    0.0109    0.0074   -0.0127
   16 C1    3d0     0.0085   -0.0249    0.0072   -0.0022    0.0001   -0.0126   -0.0034   -0.0237   -0.0345   -0.0293
   17 C1    3d1+    0.0003    0.0002   -0.0001    0.0000    0.0000    0.0002    0.0004   -0.0021    0.0059   -0.0062
   18 C1    3d1+   -0.0412    0.0271   -0.0146    0.0078    0.0007    0.0171    0.0063    0.0010   -0.0461   -0.0164
   19 C1    3d2+    0.0000    0.0009   -0.0001   -0.0001    0.0001    0.0000   -0.0005    0.0069    0.0007    0.0056
   20 C1    3d2+   -0.0183   -0.0057   -0.0034    0.0021   -0.0026    0.0030    0.0048    0.0129    0.0008    0.0161
   21 C2    1s     -0.0000    0.0108   -0.1226    0.8611   -0.4430   -0.1649    0.0021   -0.1197    0.0201    0.1580
   22 C2    1s     -0.0003   -0.0018   -0.0043    0.0406   -0.0226   -0.0096   -0.0003    0.2274   -0.0368   -0.3118
   23 C2    1s     -0.0162    0.0881   -0.0180   -0.0933    0.0961    0.0802   -0.0164    0.0927    0.1040   -0.0056
   24 C2    1s     -0.0074    0.0451    0.0039   -0.0304    0.0274    0.0226    0.0006    0.0101    0.0332    0.0100
   25 C2    2px    -0.0001    0.0000    0.0003   -0.0000   -0.0005   -0.0003    0.0000    0.0444   -0.0535   -0.0437
   26 C2    2px     0.0016    0.0063    0.0043   -0.0063    0.0176    0.0109   -0.0056    0.0336   -0.0134   -0.0579
   27 C2    2py     0.0000   -0.0000    0.0000    0.0000   -0.0000   -0.0000   -0.0000    0.0013    0.0029   -0.0018
   28 C2    2py     0.0002    0.0003   -0.0005    0.0003   -0.0002    0.0005    0.0003    0.0004    0.0006   -0.0012
   29 C2    2pz    -0.0002    0.0005    0.0002   -0.0004   -0.0001   -0.0001    0.0001   -0.0568   -0.0566   -0.0089
   30 C2    2pz    -0.0022   -0.0151    0.0065   -0.0069   -0.0108   -0.0027    0.0118   -0.0339   -0.0543   -0.0085
   31 C2    3d2-   -0.0000    0.0000   -0.0000    0.0000   -0.0000    0.0000    0.0000    0.0001    0.0002   -0.0001
   32 C2    3d2-   -0.0000    0.0003   -0.0007    0.0004   -0.0004    0.0007    0.0003    0.0001    0.0003   -0.0007
   33 C2    3d1-   -0.0000   -0.0000    0.0000   -0.0000    0.0000   -0.0000   -0.0000    0.0000    0.0000    0.0001
   34 C2    3d1-    0.0009   -0.0008   -0.0002    0.0001    0.0001   -0.0002   -0.0000   -0.0019   -0.0022    0.0021
   35 C2    3d0     0.0001   -0.0004   -0.0001    0.0005   -0.0002    0.0000    0.0000    0.0079    0.0042   -0.0040
   36 C2    3d0    -0.0162    0.0197    0.0124   -0.0009    0.0025   -0.0011   -0.0114    0.0264    0.0133   -0.0045
   37 C2    3d1+    0.0004   -0.0000    0.0002   -0.0002   -0.0003   -0.0001   -0.0001    0.0015   -0.0056   -0.0077
   38 C2    3d1+   -0.0284    0.0308    0.0093    0.0141   -0.0028    0.0003   -0.0059    0.0260   -0.0395   -0.0571
   39 C2    3d2+    0.0000   -0.0001   -0.0001    0.0006   -0.0008   -0.0003    0.0001    0.0060   -0.0052   -0.0083
   40 C2    3d2+    0.0158   -0.0081   -0.0054   -0.0118    0.0114    0.0075    0.0045   -0.0179    0.0006    0.0043
   41 C3    1s      0.0001    0.0001   -0.3069    0.4164    0.7499    0.3876    0.0002   -0.0971    0.0969    0.1223
   42 C3    1s     -0.0007   -0.0005   -0.0124    0.0186    0.0376    0.0192   -0.0008    0.1822   -0.1888   -0.2407
   43 C3    1s      0.0094   -0.0291   -0.0002   -0.0312   -0.1421   -0.0940    0.0197   -0.0040   -0.0253    0.0230
   44 C3    1s      0.0172   -0.0271   -0.0028   -0.0045   -0.0396   -0.0269    0.0096   -0.0190    0.0118    0.0175
   45 C3    2px    -0.0000    0.0001    0.0005    0.0006   -0.0002   -0.0000   -0.0000    0.0001   -0.0164    0.0728
   46 C3    2px     0.0010    0.0004    0.0013   -0.0079   -0.0002   -0.0016    0.0061    0.0018   -0.0151   -0.0112
   47 C3    2py     0.0000   -0.0000   -0.0000    0.0000   -0.0000   -0.0000   -0.0000    0.0008    0.0010   -0.0011
   48 C3    2py    -0.0003   -0.0000    0.0004   -0.0002    0.0002   -0.0003   -0.0001    0.0011    0.0012   -0.0008
   49 C3    2pz     0.0000    0.0001   -0.0003    0.0001   -0.0004   -0.0002    0.0000   -0.0547    0.0446    0.0251
   50 C3    2pz     0.0042    0.0025    0.0100   -0.0047    0.0164    0.0196   -0.0037   -0.0280    0.0539    0.0279
   51 C3    3d2-    0.0000    0.0000   -0.0000    0.0000   -0.0000    0.0000    0.0000   -0.0001   -0.0002    0.0001
   52 C3    3d2-    0.0006   -0.0004   -0.0002    0.0001   -0.0000   -0.0000   -0.0000   -0.0015   -0.0026    0.0008
   53 C3    3d1-    0.0000    0.0000   -0.0000    0.0000   -0.0000    0.0000    0.0000   -0.0001   -0.0001    0.0001
   54 C3    3d1-    0.0000   -0.0002    0.0002   -0.0001    0.0000   -0.0001   -0.0002    0.0001   -0.0006   -0.0001
   55 C3    3d0     0.0001    0.0001   -0.0002    0.0002    0.0004    0.0003   -0.0001    0.0015    0.0006    0.0009
   56 C3    3d0    -0.0377    0.0415    0.0063   -0.0148   -0.0222   -0.0018   -0.0038    0.0251   -0.0019    0.0199
   57 C3    3d1+    0.0000    0.0001   -0.0002   -0.0004    0.0002   -0.0001   -0.0000    0.0011    0.0041   -0.0090
   58 C3    3d1+    0.0042   -0.0019    0.0125    0.0102    0.0009   -0.0047   -0.0049    0.0020    0.0169    0.0117
   59 C3    3d2+   -0.0000    0.0001    0.0002    0.0001    0.0008    0.0006    0.0001    0.0087   -0.0079   -0.0089
   60 C3    3d2+    0.0176   -0.0219   -0.0045    0.0054   -0.0037   -0.0100    0.0054   -0.0138   -0.0034   -0.0108
   61 C4    1s      0.0001   -0.0001   -0.9107   -0.2328   -0.0898   -0.2971    0.0146   -0.0944    0.1096   -0.0277
   62 C4    1s     -0.0012   -0.0006   -0.0427   -0.0123   -0.0048   -0.0170    0.0006    0.1781   -0.2130    0.0545
   63 C4    1s     -0.0079    0.0237    0.1304    0.0363    0.0412    0.1109   -0.0314    0.0165    0.0047   -0.0056
   64 C4    1s     -0.0137    0.0303    0.0305    0.0089    0.0115    0.0321   -0.0076    0.0112    0.0077   -0.0084
   65 C4    2px     0.0001    0.0000   -0.0001    0.0004    0.0004    0.0003    0.0000   -0.0484    0.0430    0.0490
   66 C4    2px    -0.0056    0.0034   -0.0026   -0.0043   -0.0123   -0.0211    0.0110   -0.0277    0.0101   -0.0069
   67 C4    2py     0.0000   -0.0000   -0.0000    0.0000   -0.0000   -0.0000   -0.0000   -0.0002   -0.0005   -0.0007
   68 C4    2py    -0.0001    0.0001    0.0001   -0.0000   -0.0001    0.0000   -0.0001   -0.0003   -0.0012   -0.0007
   69 C4    2pz     0.0001    0.0000    0.0000   -0.0002   -0.0005    0.0005    0.0000   -0.0272    0.0182   -0.0980
   70 C4    2pz     0.0006    0.0029   -0.0020    0.0019   -0.0003   -0.0157    0.0032   -0.0067    0.0305   -0.0027
   71 C4    3d2-   -0.0000    0.0000   -0.0000    0.0000   -0.0000    0.0000    0.0000   -0.0000   -0.0001    0.0000
   72 C4    3d2-    0.0002   -0.0001   -0.0000    0.0000    0.0000    0.0000    0.0000   -0.0001   -0.0001    0.0003
   73 C4    3d1-    0.0000   -0.0000   -0.0000    0.0000    0.0000    0.0000    0.0000    0.0000   -0.0000    0.0000
   74 C4    3d1-   -0.0003    0.0003    0.0001   -0.0000    0.0000   -0.0000    0.0001    0.0010    0.0023   -0.0001
   75 C4    3d0     0.0001    0.0000   -0.0002   -0.0001    0.0002   -0.0006    0.0002    0.0054   -0.0048    0.0115
   76 C4    3d0    -0.0219    0.0175   -0.0038   -0.0122   -0.0035    0.0104   -0.0036    0.0121   -0.0306   -0.0064
   77 C4    3d1+   -0.0000   -0.0001   -0.0003    0.0001    0.0002    0.0001    0.0001   -0.0028    0.0038    0.0059
   78 C4    3d1+    0.0428   -0.0384    0.0214    0.0093   -0.0098    0.0019    0.0097   -0.0424    0.0326    0.0047
   79 C4    3d2+    0.0001    0.0000   -0.0007   -0.0003   -0.0004   -0.0005    0.0001    0.0059   -0.0060   -0.0047
   80 C4    3d2+    0.0171   -0.0114    0.0145    0.0120    0.0065    0.0074   -0.0012   -0.0107    0.0240    0.0034
   81 C5    1s      0.0000    0.0001   -0.2032   -0.1037   -0.4569    0.8346   -0.1513   -0.0987    0.0788   -0.1527
   82 C5    1s     -0.0006   -0.0005   -0.0075   -0.0055   -0.0216    0.0404   -0.0096    0.1860   -0.1526    0.3004
   83 C5    1s     -0.0024   -0.0221   -0.0160    0.0184    0.0440   -0.1441    0.0836   -0.0250   -0.0702   -0.0106
   84 C5    1s      0.0160   -0.0259   -0.0058    0.0069    0.0084   -0.0415    0.0227   -0.0145    0.0297   -0.0131
   85 C5    2px    -0.0001    0.0001   -0.0000    0.0000    0.0000   -0.0001    0.0006   -0.0513    0.0144   -0.0496
   86 C5    2px     0.0092    0.0023    0.0084    0.0054    0.0024    0.0117   -0.0211   -0.0140    0.0503   -0.0246
   87 C5    2py    -0.0000   -0.0000   -0.0000   -0.0000   -0.0000    0.0000   -0.0000   -0.0006    0.0009   -0.0011
   88 C5    2py     0.0004   -0.0001    0.0003   -0.0001    0.0002   -0.0004   -0.0001   -0.0017   -0.0026    0.0001
   89 C5    2pz    -0.0001    0.0000    0.0006    0.0000   -0.0001    0.0003    0.0003    0.0251   -0.0441   -0.0202
   90 C5    2pz     0.0072   -0.0000   -0.0038    0.0002   -0.0018   -0.0152    0.0029    0.0360    0.0039    0.0403
   91 C5    3d2-   -0.0000    0.0000   -0.0000    0.0000   -0.0000    0.0000    0.0000    0.0000   -0.0001    0.0001
   92 C5    3d2-   -0.0001    0.0001    0.0001   -0.0000   -0.0000   -0.0000   -0.0001    0.0001    0.0007    0.0000
   93 C5    3d1-   -0.0000    0.0000   -0.0000    0.0000   -0.0000    0.0000    0.0000    0.0000   -0.0001    0.0000
   94 C5    3d1-   -0.0004    0.0001   -0.0000   -0.0000    0.0001   -0.0000    0.0001    0.0014    0.0030    0.0000
   95 C5    3d0    -0.0000   -0.0000    0.0004    0.0002   -0.0001    0.0006   -0.0001    0.0047   -0.0080    0.0035
   96 C5    3d0     0.0154   -0.0169   -0.0134    0.0033   -0.0047   -0.0054   -0.0031   -0.0046    0.0127    0.0309
   97 C5    3d1+   -0.0001   -0.0000    0.0000    0.0000   -0.0000   -0.0002   -0.0003    0.0035   -0.0003    0.0082
   98 C5    3d1+    0.0361   -0.0438    0.0036   -0.0031   -0.0188    0.0090    0.0021   -0.0342   -0.0014    0.0427
   99 C5    3d2+    0.0000    0.0002   -0.0001   -0.0000   -0.0003    0.0007   -0.0006    0.0068   -0.0018    0.0085
  100 C5    3d2+   -0.0130    0.0121    0.0056   -0.0005    0.0072   -0.0139    0.0116    0.0044   -0.0070   -0.0198
  101 C6    1s     -0.0000    0.0096   -0.0176   -0.0145   -0.0684    0.1339    0.9782   -0.1181    0.0004   -0.1330
  102 C6    1s     -0.0003   -0.0016    0.0006   -0.0012   -0.0026    0.0043    0.0476    0.2238    0.0017    0.2616
  103 C6    1s     -0.0284    0.0800   -0.0292    0.0000    0.0118    0.0559   -0.1434    0.0334   -0.0444   -0.0263
  104 C6    1s     -0.0053    0.0425    0.0001    0.0048    0.0028    0.0134   -0.0419   -0.0020   -0.0081   -0.0209
  105 C6    2px    -0.0003    0.0005    0.0002    0.0002    0.0002   -0.0005   -0.0000   -0.0205   -0.0664    0.0652
  106 C6    2px     0.0070   -0.0071    0.0070    0.0064    0.0025   -0.0059   -0.0118    0.0193    0.0187    0.0434
  107 C6    2py     0.0000   -0.0000    0.0000   -0.0000    0.0000   -0.0000   -0.0000   -0.0002    0.0027   -0.0017
  108 C6    2py    -0.0008    0.0004   -0.0003    0.0002   -0.0004    0.0006    0.0001    0.0015    0.0049   -0.0030
  109 C6    2pz     0.0001   -0.0002    0.0001    0.0000    0.0001   -0.0002    0.0004    0.0663   -0.0149    0.0280
  110 C6    2pz     0.0042    0.0104    0.0025   -0.0082   -0.0006    0.0166   -0.0176    0.0446    0.0106    0.0307
  111 C6    3d2-    0.0000    0.0000   -0.0000    0.0000    0.0000   -0.0000    0.0000    0.0001    0.0001    0.0001
  112 C6    3d2-   -0.0005    0.0002   -0.0002    0.0000   -0.0000    0.0002    0.0002    0.0022    0.0055    0.0002
  113 C6    3d1-   -0.0000    0.0000   -0.0000   -0.0000   -0.0000    0.0000    0.0000    0.0000    0.0001   -0.0001
  114 C6    3d1-   -0.0008    0.0008   -0.0006    0.0003   -0.0005    0.0010    0.0004    0.0017    0.0033   -0.0020
  115 C6    3d0    -0.0003    0.0000   -0.0001    0.0000   -0.0001   -0.0000    0.0005    0.0018    0.0000   -0.0011
  116 C6    3d0     0.0264   -0.0297   -0.0163    0.0101   -0.0033   -0.0048   -0.0238   -0.0509   -0.0043   -0.0340
  117 C6    3d1+    0.0001    0.0003    0.0001   -0.0000    0.0002   -0.0004    0.0000   -0.0024   -0.0074    0.0088
  118 C6    3d1+    0.0139   -0.0029   -0.0055    0.0042   -0.0042    0.0025   -0.0027    0.0130    0.0434    0.0330
  119 C6    3d2+    0.0003   -0.0004   -0.0000    0.0001    0.0002   -0.0002    0.0009    0.0099   -0.0002    0.0096
  120 C6    3d2+   -0.0073    0.0194    0.0102   -0.0060    0.0021    0.0070   -0.0057    0.0271    0.0080    0.0188
  121 O7    1s      0.9898    0.0000   -0.0001   -0.0000    0.0000    0.0000   -0.0000    0.0974    0.2171   -0.0032
  122 O7    1s     -0.0402    0.0008   -0.0009   -0.0002    0.0002    0.0005   -0.0002    0.1929    0.4392   -0.0057
  123 O7    1s      0.0507   -0.0040    0.0091   -0.0010   -0.0009   -0.0052   -0.0003    0.1503    0.3421   -0.0037
  124 O7    1s      0.0267    0.0053    0.0019    0.0023   -0.0046   -0.0022    0.0056    0.0137    0.1109   -0.0194
  125 O7    2px    -0.0007    0.0000   -0.0000    0.0001   -0.0000   -0.0001   -0.0000    0.0103    0.0175    0.0038
  126 O7    2px     0.0067   -0.0028    0.0011   -0.0000   -0.0006    0.0004    0.0013    0.0141    0.0238    0.0026
  127 O7    2px     0.0050   -0.0017    0.0006   -0.0007   -0.0008   -0.0003    0.0014    0.0033    0.0238   -0.0041
  128 O7    2py    -0.0008   -0.0001    0.0000   -0.0000    0.0000   -0.0000   -0.0000   -0.0174   -0.0421    0.0015
  129 O7    2py    -0.0000   -0.0002   -0.0000    0.0003   -0.0001    0.0000    0.0000   -0.0152   -0.0369    0.0007
  130 O7    2py    -0.0001   -0.0003   -0.0004    0.0002   -0.0002    0.0002   -0.0000   -0.0015   -0.0024    0.0001
  131 O7    2pz    -0.0017   -0.0003    0.0000   -0.0002   -0.0000    0.0000    0.0001   -0.0991   -0.2347   -0.0021
  132 O7    2pz     0.0040   -0.0024    0.0008    0.0014    0.0002   -0.0007   -0.0003   -0.0731   -0.1750    0.0021
  133 O7    2pz     0.0024   -0.0015    0.0004    0.0014   -0.0009   -0.0011   -0.0010   -0.0136   -0.0222   -0.0036
  134 O7    3d2-    0.0003    0.0001   -0.0001   -0.0000   -0.0000    0.0001    0.0000   -0.0006   -0.0013    0.0000
  135 O7    3d2-    0.0000   -0.0008    0.0009   -0.0006    0.0004   -0.0008   -0.0006    0.0014    0.0021    0.0003
  136 O7    3d1-   -0.0002   -0.0001    0.0000    0.0000   -0.0000   -0.0000    0.0000   -0.0014   -0.0033   -0.0001
  137 O7    3d1-    0.0002   -0.0001    0.0002    0.0000   -0.0000   -0.0002   -0.0002   -0.0042   -0.0108   -0.0006
  138 O7    3d0     0.0001    0.0000   -0.0000    0.0001    0.0000   -0.0000   -0.0001   -0.0028   -0.0065   -0.0016
  139 O7    3d0    -0.0000    0.0006   -0.0004    0.0009    0.0001   -0.0004   -0.0004   -0.0051   -0.0110   -0.0004
  140 O7    3d1+    0.0003   -0.0005   -0.0000    0.0001   -0.0000   -0.0000    0.0000    0.0018    0.0004   -0.0010
  141 O7    3d1+   -0.0004   -0.0030    0.0006   -0.0001    0.0004   -0.0000   -0.0010    0.0018   -0.0034    0.0007
  142 O7    3d2+    0.0002   -0.0005    0.0000    0.0000   -0.0001   -0.0000    0.0001    0.0028    0.0035    0.0007
  143 O7    3d2+   -0.0018   -0.0003   -0.0012    0.0005   -0.0001    0.0016    0.0016    0.0036    0.0042    0.0004
  144 H8    1s     -0.0003   -0.0001    0.0001   -0.0005    0.0002    0.0001   -0.0000    0.0115    0.0220   -0.0001
  145 H8    1s      0.0068   -0.0057    0.0063   -0.0042    0.0030   -0.0077   -0.0059   -0.0213   -0.0489    0.0124
  146 H8    2px     0.0007    0.0006   -0.0001   -0.0000    0.0000    0.0001    0.0001    0.0015    0.0038   -0.0000
  147 H8    2px     0.0017   -0.0017    0.0013   -0.0008    0.0008   -0.0020   -0.0010   -0.0030   -0.0049    0.0043
  148 H8    2py    -0.0010   -0.0000    0.0000    0.0001    0.0000   -0.0000    0.0001   -0.0023   -0.0049    0.0001
  149 H8    2py    -0.0012    0.0011   -0.0008    0.0007   -0.0002    0.0013    0.0016    0.0027    0.0044   -0.0015
  150 H8    2pz    -0.0006    0.0002    0.0001   -0.0001    0.0000   -0.0000   -0.0000   -0.0044   -0.0097    0.0001
  151 H8    2pz     0.0007   -0.0002   -0.0014    0.0008   -0.0003    0.0009    0.0008   -0.0015    0.0002    0.0023
  152 H9    1s     -0.0002   -0.0002    0.0005   -0.0009    0.0008   -0.0001   -0.0005    0.0500    0.0012   -0.0998
  153 H9    1s     -0.0628    0.0604    0.0154    0.0582   -0.0280   -0.0089   -0.0170    0.0864   -0.0512   -0.1178
  154 H9    2px     0.0001    0.0002   -0.0001   -0.0005    0.0006    0.0003   -0.0000    0.0070   -0.0010   -0.0118
  155 H9    2px    -0.0064    0.0094   -0.0003    0.0085   -0.0024    0.0013   -0.0011    0.0097   -0.0100   -0.0163
  156 H9    2py     0.0000   -0.0000   -0.0000    0.0000   -0.0000    0.0000    0.0000    0.0000    0.0001   -0.0000
  157 H9    2py    -0.0005    0.0006   -0.0001    0.0001   -0.0002    0.0004    0.0001    0.0009    0.0009   -0.0014
  158 H9    2pz    -0.0000   -0.0002   -0.0001    0.0005   -0.0001   -0.0002   -0.0001   -0.0044   -0.0001    0.0065
  159 H9    2pz     0.0071   -0.0088   -0.0024   -0.0032    0.0026    0.0008    0.0026   -0.0137   -0.0049    0.0051
  160 H10   1s     -0.0001   -0.0002    0.0003   -0.0004   -0.0007   -0.0008   -0.0003    0.0395   -0.0419   -0.0780
  161 H10   1s      0.0710   -0.0774   -0.0221    0.0405    0.0590    0.0119    0.0116   -0.0260   -0.0217   -0.0564
  162 H10   2px    -0.0000   -0.0001   -0.0003   -0.0002    0.0000    0.0001   -0.0000    0.0000   -0.0003    0.0013
  163 H10   2px     0.0000    0.0008   -0.0047   -0.0040    0.0004    0.0011    0.0018   -0.0005   -0.0009   -0.0105
  164 H10   2py     0.0000    0.0000   -0.0000    0.0000   -0.0000    0.0000    0.0000   -0.0000    0.0000   -0.0000
  165 H10   2py    -0.0001    0.0002   -0.0001    0.0001   -0.0001    0.0001    0.0001   -0.0000    0.0002   -0.0001
  166 H10   2pz     0.0000    0.0000   -0.0000    0.0002    0.0009    0.0005   -0.0001   -0.0066    0.0070    0.0105
  167 H10   2pz    -0.0118    0.0123    0.0049   -0.0070   -0.0070   -0.0010   -0.0036    0.0026    0.0058    0.0059
  168 H11   1s     -0.0001   -0.0004    0.0008    0.0001    0.0003    0.0006   -0.0003    0.0353   -0.0544    0.0175
  169 H11   1s     -0.0809    0.0716   -0.0754   -0.0364    0.0041   -0.0128   -0.0141    0.0995   -0.0955   -0.0068
  170 H11   2px    -0.0000   -0.0000   -0.0007   -0.0004   -0.0002   -0.0005    0.0001   -0.0055    0.0071   -0.0010
  171 H11   2px     0.0096   -0.0115    0.0106    0.0023   -0.0033    0.0007    0.0023   -0.0182    0.0065   -0.0040
  172 H11   2py     0.0000   -0.0000   -0.0000    0.0000    0.0000   -0.0000    0.0000   -0.0000   -0.0000   -0.0000
  173 H11   2py    -0.0000    0.0000    0.0000    0.0000   -0.0000    0.0000   -0.0000   -0.0003   -0.0009   -0.0003
  174 H11   2pz    -0.0001   -0.0000   -0.0004   -0.0000    0.0001   -0.0004   -0.0000   -0.0032    0.0039   -0.0029
  175 H11   2pz     0.0062   -0.0059    0.0053    0.0054    0.0034   -0.0021    0.0007   -0.0070    0.0131    0.0103
  176 H12   1s     -0.0000   -0.0003    0.0003   -0.0004    0.0004   -0.0010    0.0002    0.0384   -0.0367    0.0962
  177 H12   1s      0.0703   -0.0797   -0.0120   -0.0034   -0.0507    0.0479   -0.0130   -0.0318   -0.0079    0.1179
  178 H12   2px    -0.0000   -0.0000   -0.0001   -0.0001   -0.0003    0.0008   -0.0004   -0.0058    0.0046   -0.0116
  179 H12   2px    -0.0092    0.0115    0.0003   -0.0000    0.0073   -0.0058   -0.0017    0.0041    0.0041   -0.0090
  180 H12   2py    -0.0000    0.0000   -0.0000    0.0000   -0.0000    0.0000    0.0000    0.0000    0.0001   -0.0000
  181 H12   2py    -0.0001    0.0001   -0.0001    0.0000    0.0000    0.0001    0.0001    0.0004    0.0004   -0.0002
  182 H12   2pz    -0.0001   -0.0000   -0.0003    0.0001    0.0003   -0.0004    0.0001    0.0032   -0.0035    0.0059
  183 H12   2pz     0.0070   -0.0051   -0.0062    0.0014   -0.0039    0.0020   -0.0030    0.0025    0.0070    0.0150
  184 H13   1s     -0.0002   -0.0002    0.0005   -0.0005    0.0000   -0.0001   -0.0012    0.0490    0.0132    0.0825
  185 H13   1s     -0.0473    0.0598    0.0269   -0.0184    0.0059    0.0169    0.0700    0.1298    0.0395    0.0824
  186 H13   2px    -0.0000   -0.0001   -0.0001   -0.0002   -0.0001    0.0001    0.0000   -0.0008   -0.0023    0.0014
  187 H13   2px     0.0048   -0.0018   -0.0010    0.0005   -0.0016    0.0016   -0.0001    0.0056    0.0205    0.0065
  188 H13   2py     0.0000   -0.0000   -0.0000    0.0000   -0.0000    0.0000    0.0000    0.0000    0.0001   -0.0000
  189 H13   2py    -0.0004    0.0005   -0.0003    0.0002   -0.0002    0.0005    0.0002    0.0010    0.0017   -0.0013
  190 H13   2pz     0.0002    0.0003   -0.0001    0.0001    0.0000    0.0001   -0.0009    0.0082    0.0011    0.0112
  191 H13   2pz    -0.0059    0.0125    0.0027   -0.0018    0.0010    0.0045    0.0098    0.0248    0.0131    0.0091
 
 
      Orbital           11        12        13        14        15        16        17        18        19        20
      Energy       -0.9896   -0.8427   -0.8094   -0.7084   -0.6507   -0.6349   -0.6064   -0.5482   -0.5170    0.0000
      Occ. No.      2.0000    2.0000    2.0000    2.0000    2.0000    2.0000    2.0000    2.0000    2.0000    1.9912
 
    1 C1    1s     -0.1189   -0.0096    0.1193    0.0153    0.0056   -0.0834    0.0015    0.0264    0.0037   -0.0013
    2 C1    1s      0.2450    0.0200   -0.2570   -0.0287   -0.0117    0.1850   -0.0036   -0.0591   -0.0090    0.0107
    3 C1    1s     -0.0338    0.0138   -0.1077   -0.1185   -0.0146    0.2391    0.0018    0.2466    0.0081   -0.1056
    4 C1    1s      0.0020    0.0065    0.0746   -0.1953   -0.0050   -0.0151    0.0139   -0.0107    0.0051   -0.1031
    5 C1    2px     0.0943   -0.1147   -0.0983    0.0165    0.1430    0.0884   -0.0435    0.0075   -0.1259    0.0128
    6 C1    2px    -0.0255   -0.0581   -0.0126    0.2018    0.0288    0.2040    0.0086    0.0560   -0.0482    0.0864
    7 C1    2py     0.0004    0.0062    0.0010    0.0007   -0.0091   -0.0011    0.0023    0.0014    0.0085    0.0017
    8 C1    2py    -0.0060    0.0022    0.0003    0.0057   -0.0057    0.0012    0.0039    0.0042    0.0101    0.0143
    9 C1    2pz     0.0627    0.2045   -0.0387    0.0012   -0.2519    0.0176    0.0734    0.0069    0.2097    0.0310
   10 C1    2pz    -0.0006    0.0897   -0.0016    0.1213   -0.0861    0.1230   -0.0528    0.0421    0.0538   -0.0293
   11 C1    3d2-   -0.0014    0.0005    0.0007    0.0004   -0.0006   -0.0003   -0.0000    0.0004    0.0004    0.0071
   12 C1    3d2-    0.0085   -0.0074    0.0027   -0.0181    0.0043   -0.0077    0.0092   -0.0085    0.0077   -0.0064
   13 C1    3d1-   -0.0002    0.0003   -0.0000   -0.0000   -0.0005    0.0000    0.0001    0.0001    0.0005    0.0026
   14 C1    3d1-    0.0045   -0.0013    0.0004   -0.0091    0.0002   -0.0035    0.0037   -0.0038    0.0037   -0.0222
   15 C1    3d0     0.0035    0.0103   -0.0029   -0.0055   -0.0071   -0.0010    0.0112   -0.0051    0.0103    0.0192
   16 C1    3d0     0.0508   -0.0274    0.0160   -0.0928   -0.0177   -0.0577   -0.0298   -0.0642    0.0820   -0.1545
   17 C1    3d1+   -0.0143    0.0065    0.0081    0.0118   -0.0058    0.0009    0.0073    0.0120    0.0076    0.0047
   18 C1    3d1+   -0.0366   -0.0205   -0.0224    0.1228   -0.0172    0.1089   -0.0465    0.0710    0.0404    0.0079
   19 C1    3d2+    0.0057   -0.0054   -0.0033    0.0018    0.0040    0.0023   -0.0065    0.0024   -0.0060   -0.0126
   20 C1    3d2+   -0.0129    0.0127    0.0152    0.0694    0.0083    0.0448    0.0157   -0.0010   -0.0506    0.1105
   21 C2    1s     -0.0794   -0.0966   -0.0551    0.0347   -0.0162    0.0480   -0.0220   -0.0264    0.0003   -0.0209
   22 C2    1s      0.1575    0.1970    0.1102   -0.0617    0.0313   -0.0932    0.0536    0.0631    0.0108    0.0470
   23 C2    1s      0.0086    0.1432    0.0176   -0.2235    0.0582   -0.1954    0.1820   -0.0192   -0.2658    0.2412
   24 C2    1s     -0.0111   -0.0611   -0.0033    0.0825    0.0070   -0.0023   -0.0259   -0.0401    0.0130    0.0076
   25 C2    2px    -0.0181   -0.1097    0.0257    0.2011    0.1061    0.1085    0.2483    0.2117    0.1115   -0.0283
   26 C2    2px     0.0371   -0.0031    0.0082   -0.0529    0.0568   -0.0786    0.0881    0.0971    0.0313   -0.1056
   27 C2    2py    -0.0023    0.0035    0.0013    0.0011   -0.0055   -0.0005    0.0018    0.0016    0.0056    0.0127
   28 C2    2py    -0.0022    0.0024   -0.0003    0.0052   -0.0036    0.0020   -0.0001    0.0032    0.0025    0.0235
   29 C2    2pz    -0.0813   -0.1054    0.2116   -0.0204    0.2591   -0.1229   -0.0840    0.0642   -0.1831   -0.0465
   30 C2    2pz    -0.0032   -0.0557    0.0797    0.0524    0.0847    0.0459   -0.0828    0.0178   -0.0589   -0.1002
   31 C2    3d2-   -0.0002    0.0000    0.0001    0.0001   -0.0000   -0.0000    0.0001    0.0001    0.0001    0.0005
   32 C2    3d2-   -0.0024    0.0020   -0.0017    0.0077   -0.0010    0.0037   -0.0022    0.0043   -0.0023    0.0118
   33 C2    3d1-   -0.0000   -0.0004    0.0000   -0.0000    0.0005    0.0000   -0.0000   -0.0000   -0.0004   -0.0007
   34 C2    3d1-    0.0018   -0.0021   -0.0016   -0.0005    0.0011    0.0004    0.0033    0.0007    0.0032   -0.0018
   35 C2    3d0     0.0117    0.0087   -0.0089   -0.0046   -0.0102    0.0120   -0.0018   -0.0023    0.0144    0.0015
   36 C2    3d0     0.0232   -0.0735    0.0352    0.0878   -0.0193    0.0198    0.0056   -0.1045    0.1052    0.0990
   37 C2    3d1+   -0.0037   -0.0041    0.0088    0.0063    0.0028    0.0065    0.0094    0.0086    0.0126   -0.0012
   38 C2    3d1+    0.0095   -0.0686    0.0164    0.1582   -0.0109    0.0938   -0.0922    0.0099    0.0935   -0.0489
   39 C2    3d2+   -0.0013   -0.0008    0.0072    0.0013    0.0063   -0.0083    0.0022    0.0019   -0.0083   -0.0011
   40 C2    3d2+   -0.0195    0.0287   -0.0307   -0.0872    0.0135   -0.0463   -0.0059    0.0716   -0.0469   -0.1010
   41 C3    1s      0.0805    0.1227   -0.0683   -0.0304    0.0140   -0.0438   -0.0220    0.0174    0.0042    0.0074
   42 C3    1s     -0.1586   -0.2489    0.1365    0.0665   -0.0278    0.0812    0.0536   -0.0307   -0.0202   -0.0184
   43 C3    1s     -0.0200   -0.1138    0.1124    0.1813   -0.0652    0.2564    0.1842   -0.2325    0.2214    0.2300
   44 C3    1s     -0.0070    0.0569   -0.0288   -0.0699   -0.0016   -0.0040   -0.0161    0.0444   -0.0094   -0.0124
   45 C3    2px    -0.1127   -0.0631   -0.1795   -0.0380   -0.2709   -0.0458   -0.0542   -0.2200   -0.1489    0.0198
   46 C3    2px    -0.0281   -0.0198   -0.0692   -0.0322   -0.0976    0.0021   -0.0308   -0.0611   -0.0505   -0.0902
   47 C3    2py    -0.0006    0.0009    0.0004    0.0002   -0.0002   -0.0002    0.0010    0.0002    0.0001    0.0038
   48 C3    2py     0.0007    0.0002    0.0011   -0.0036    0.0004   -0.0019    0.0008   -0.0021    0.0002   -0.0061
   49 C3    2pz     0.0041   -0.0482    0.0642   -0.1631   -0.0298    0.2255   -0.2501   -0.0800    0.1966    0.0133
   50 C3    2pz     0.0231    0.0372   -0.0337   -0.1597    0.0087   -0.0696   -0.0993    0.0231    0.0542   -0.0188
   51 C3    3d2-    0.0001   -0.0001   -0.0001   -0.0000    0.0003    0.0001   -0.0001   -0.0001   -0.0003   -0.0004
   52 C3    3d2-    0.0017   -0.0004   -0.0015    0.0008    0.0000    0.0010    0.0013    0.0009    0.0015    0.0027
   53 C3    3d1-    0.0001   -0.0001   -0.0000    0.0001    0.0001    0.0000   -0.0001    0.0000   -0.0001   -0.0002
   54 C3    3d1-    0.0007    0.0003   -0.0001   -0.0009   -0.0005   -0.0003    0.0002   -0.0003   -0.0000   -0.0027
   55 C3    3d0     0.0007   -0.0020    0.0012    0.0047   -0.0025    0.0131   -0.0057   -0.0095    0.0167    0.0010
   56 C3    3d0     0.0639   -0.0660    0.0555    0.2144   -0.0263    0.1074    0.0384   -0.1629    0.0991    0.1232
   57 C3    3d1+    0.0121    0.0040    0.0092    0.0003    0.0099    0.0069    0.0082    0.0185    0.0086    0.0001
   58 C3    3d1+   -0.0096   -0.0370   -0.0193    0.0429    0.0058   -0.0322   -0.0101    0.0468    0.0627    0.0353
   59 C3    3d2+   -0.0057   -0.0044    0.0022   -0.0011    0.0010   -0.0062    0.0043    0.0050   -0.0094   -0.0004
   60 C3    3d2+   -0.0356    0.0490   -0.0294   -0.0929    0.0133   -0.0298   -0.0314    0.0880   -0.0675   -0.0559
   61 C4    1s      0.1539   -0.0188    0.1109    0.0465   -0.0099    0.0622   -0.0008    0.0063   -0.0005   -0.0005
   62 C4    1s     -0.3051    0.0383   -0.2274   -0.0865    0.0202   -0.1295    0.0014   -0.0301    0.0006    0.0030
   63 C4    1s      0.0012    0.0137   -0.1110   -0.0098    0.0460   -0.3910    0.0019    0.1577    0.0062    0.0260
   64 C4    1s      0.0471   -0.0129    0.0423    0.0647   -0.0008    0.0202   -0.0020   -0.0314    0.0003    0.0175
   65 C4    2px     0.0261    0.1070   -0.0255   -0.2306    0.1444    0.0938   -0.0348    0.2802    0.1411   -0.0013
   66 C4    2px     0.0363    0.0403    0.0498    0.0207    0.0373    0.1680   -0.0128    0.0508    0.0422   -0.0036
   67 C4    2py     0.0002   -0.0004   -0.0007   -0.0005    0.0019    0.0005    0.0008   -0.0017   -0.0026   -0.0027
   68 C4    2py     0.0002    0.0000   -0.0002   -0.0001    0.0011    0.0004   -0.0005   -0.0010   -0.0032   -0.0020
   69 C4    2pz    -0.0125   -0.1697   -0.0444   -0.1459   -0.2310    0.0158    0.0608    0.1762   -0.2334   -0.0009
   70 C4    2pz     0.0067   -0.0875    0.0189    0.0132   -0.1008    0.0772    0.0138    0.0354   -0.0807    0.0632
   71 C4    3d2-    0.0000   -0.0000    0.0000    0.0000   -0.0000   -0.0000   -0.0001   -0.0000    0.0000   -0.0002
   72 C4    3d2-    0.0002   -0.0004   -0.0006    0.0004    0.0001    0.0007    0.0006    0.0004    0.0007   -0.0002
   73 C4    3d1-    0.0001   -0.0000    0.0000    0.0000   -0.0000   -0.0000   -0.0000    0.0001    0.0001    0.0000
   74 C4    3d1-   -0.0014   -0.0003    0.0009   -0.0003    0.0005   -0.0006   -0.0003   -0.0004   -0.0004   -0.0012
   75 C4    3d0    -0.0052    0.0102    0.0003    0.0014    0.0074    0.0037   -0.0105   -0.0120    0.0129    0.0006
   76 C4    3d0     0.0166   -0.0295    0.0322    0.0341   -0.0066    0.0679    0.0250   -0.0831    0.0661    0.0275
   77 C4    3d1+    0.0068    0.0065   -0.0016   -0.0031    0.0072   -0.0068   -0.0069    0.0220    0.0096   -0.0000
   78 C4    3d1+   -0.0140    0.0083   -0.0783   -0.1051    0.0119   -0.1516    0.0271    0.1702    0.0588   -0.1143
   79 C4    3d2+   -0.0069   -0.0050   -0.0048   -0.0022   -0.0039   -0.0044    0.0061    0.0068   -0.0073   -0.0004
   80 C4    3d2+   -0.0044    0.0184   -0.0194   -0.0567    0.0068   -0.0681   -0.0121    0.0579   -0.0353   -0.0338
   81 C5    1s      0.0304   -0.1071   -0.0916   -0.0339    0.0046   -0.0431    0.0234    0.0162   -0.0039   -0.0033
   82 C5    1s     -0.0601    0.2174    0.1838    0.0741   -0.0084    0.0799   -0.0562   -0.0289    0.0205    0.0085
   83 C5    1s      0.0137    0.0823    0.1515    0.1464   -0.0168    0.2468   -0.1931   -0.2387   -0.2460   -0.0576
   84 C5    1s     -0.0282   -0.0323   -0.0356   -0.0836    0.0024   -0.0112    0.0193    0.0404    0.0124    0.0035
   85 C5    2px    -0.0618    0.0966   -0.0097   -0.1406    0.1223    0.2067    0.2414   -0.1807   -0.1137   -0.0077
   86 C5    2px    -0.0075    0.0036   -0.0634   -0.1412    0.0601   -0.0455    0.1090   -0.0143   -0.0176   -0.0130
   87 C5    2py    -0.0014    0.0007   -0.0005   -0.0001    0.0008    0.0010    0.0014   -0.0014   -0.0010    0.0023
   88 C5    2py     0.0023   -0.0018   -0.0006   -0.0038    0.0023   -0.0000    0.0028   -0.0033    0.0004    0.0048
   89 C5    2pz    -0.1052    0.0773   -0.1660    0.0657    0.2415   -0.0954   -0.0780   -0.1747    0.2203   -0.0024
   90 C5    2pz    -0.0474    0.0470   -0.0241    0.0775    0.0761    0.0497   -0.0285   -0.0720    0.0642    0.0540
   91 C5    3d2-    0.0001   -0.0001   -0.0000    0.0000    0.0001    0.0000   -0.0001   -0.0000   -0.0002   -0.0007
   92 C5    3d2-   -0.0011    0.0005    0.0012    0.0001   -0.0002   -0.0010   -0.0008    0.0004   -0.0009    0.0006
   93 C5    3d1-    0.0000   -0.0001   -0.0001    0.0000    0.0002    0.0000   -0.0000   -0.0001   -0.0002   -0.0004
   94 C5    3d1-   -0.0011   -0.0003    0.0005   -0.0005    0.0004   -0.0007    0.0002   -0.0006    0.0002   -0.0059
   95 C5    3d0    -0.0120    0.0079   -0.0040   -0.0006    0.0082   -0.0088    0.0029   -0.0107    0.0145    0.0007
   96 C5    3d0    -0.0311   -0.0525   -0.0255   -0.1159   -0.0020   -0.0104    0.0258    0.0337    0.1113   -0.0100
   97 C5    3d1+    0.0052   -0.0031    0.0036   -0.0048   -0.0039   -0.0103   -0.0098    0.0177    0.0138    0.0005
   98 C5    3d1+   -0.0525   -0.0085   -0.0781   -0.1832   -0.0047   -0.1081    0.0648    0.1859    0.0942   -0.0973
   99 C5    3d2+    0.0048    0.0004    0.0061    0.0020   -0.0048    0.0064   -0.0027    0.0055   -0.0086   -0.0002
  100 C5    3d2+    0.0137    0.0173    0.0149    0.0979   -0.0021    0.0375   -0.0112   -0.0258   -0.0584    0.0324
  101 C6    1s     -0.1128    0.1158   -0.0270    0.0432   -0.0002    0.0489    0.0189   -0.0222   -0.0026    0.0118
  102 C6    1s      0.2227   -0.2363    0.0527   -0.0794    0.0025   -0.0950   -0.0475    0.0540   -0.0058   -0.0233
  103 C6    1s      0.0995   -0.1447   -0.0357   -0.3072    0.0037   -0.1912   -0.1624   -0.0636    0.2828   -0.2714
  104 C6    1s      0.0103    0.0457   -0.0016    0.1111   -0.0058    0.0135    0.0172   -0.0328   -0.0185   -0.0018
  105 C6    2px    -0.0509    0.1009    0.2085    0.0686   -0.2682   -0.1112   -0.0516    0.1745    0.1177    0.0264
  106 C6    2px    -0.0066    0.0244    0.0864    0.0232   -0.0953   -0.0383    0.0361    0.0628    0.0463    0.0771
  107 C6    2py    -0.0034    0.0035    0.0014    0.0011   -0.0046   -0.0004    0.0014    0.0009    0.0045    0.0128
  108 C6    2py    -0.0060    0.0063    0.0011    0.0060   -0.0052    0.0008   -0.0036    0.0034   -0.0011    0.0031
  109 C6    2pz     0.0363    0.0457   -0.0697    0.1842    0.0053    0.1464   -0.2656    0.1586   -0.1855   -0.0057
  110 C6    2pz     0.0546   -0.0176   -0.0429   -0.0804    0.0142   -0.0913   -0.1003    0.0754   -0.0393   -0.0641
  111 C6    3d2-    0.0001   -0.0003   -0.0002   -0.0001    0.0005    0.0002    0.0000   -0.0002   -0.0004   -0.0001
  112 C6    3d2-   -0.0033   -0.0001    0.0005    0.0016    0.0005   -0.0002   -0.0002    0.0007   -0.0002   -0.0078
  113 C6    3d1-   -0.0001    0.0002    0.0001    0.0000   -0.0003   -0.0000    0.0001    0.0000    0.0002    0.0004
  114 C6    3d1-   -0.0053    0.0038    0.0000    0.0084   -0.0025    0.0030   -0.0052    0.0044   -0.0044    0.0041
  115 C6    3d0     0.0006   -0.0015   -0.0019   -0.0038    0.0000   -0.0113    0.0058   -0.0060    0.0163    0.0008
  116 C6    3d0    -0.0148   -0.0514   -0.0540   -0.2158   -0.0015   -0.1070   -0.0346    0.0326    0.1370   -0.1474
  117 C6    3d1+   -0.0083    0.0061    0.0152    0.0063   -0.0108   -0.0122   -0.0065    0.0069    0.0099    0.0007
  118 C6    3d1+   -0.0578   -0.0181   -0.0343   -0.0016   -0.0116    0.0058    0.0451    0.1207    0.0572    0.0851
  119 C6    3d2+    0.0068   -0.0042    0.0020    0.0006    0.0001    0.0052   -0.0044    0.0040   -0.0094   -0.0002
  120 C6    3d2+    0.0047    0.0514    0.0218    0.0989    0.0016    0.0315    0.0276   -0.0026   -0.0881    0.0632
  121 O7    1s     -0.1245    0.0167    0.0394    0.0211   -0.0145   -0.0102   -0.0012    0.0188    0.0075   -0.0998
  122 O7    1s     -0.2578    0.0335    0.0851    0.0428   -0.0292   -0.0238   -0.0025    0.0408    0.0153   -0.1940
  123 O7    1s     -0.2038    0.0291    0.0737    0.0733   -0.0297   -0.0105   -0.0007    0.0518    0.0156   -0.0443
  124 O7    1s     -0.0155    0.0184   -0.0381    0.0339   -0.0040   -0.0464   -0.0151   -0.0075   -0.0092    0.0360
  125 O7    2px    -0.0106   -0.0088    0.0036    0.0099    0.0125    0.0020    0.0009    0.0101   -0.0096    0.2732
  126 O7    2px    -0.0227    0.0009    0.0100    0.0320    0.0019    0.0084   -0.0020    0.0210   -0.0054    0.1505
  127 O7    2px    -0.0058    0.0037   -0.0053    0.0060   -0.0011   -0.0125   -0.0045    0.0014   -0.0036    0.0359
  128 O7    2py     0.0278   -0.0073   -0.0104   -0.0073    0.0110    0.0030    0.0000   -0.0075   -0.0088   -0.1728
  129 O7    2py     0.0233   -0.0054   -0.0087   -0.0030    0.0078    0.0035    0.0001   -0.0042   -0.0063   -0.0631
  130 O7    2py     0.0011    0.0016   -0.0016    0.0028   -0.0001    0.0001   -0.0009    0.0023   -0.0016   -0.0147
  131 O7    2pz     0.1403   -0.0061   -0.0472   -0.0194    0.0002    0.0129   -0.0016   -0.0161    0.0018   -0.3851
  132 O7    2pz     0.0992   -0.0151   -0.0329    0.0021    0.0060    0.0161    0.0020   -0.0034    0.0022   -0.2585
  133 O7    2pz     0.0206    0.0043   -0.0107    0.0017   -0.0022   -0.0066   -0.0019   -0.0040   -0.0022   -0.0582
  134 O7    3d2-    0.0007   -0.0000   -0.0002    0.0001    0.0000    0.0001    0.0001    0.0001    0.0000    0.0082
  135 O7    3d2-    0.0009   -0.0006    0.0018   -0.0073   -0.0005   -0.0032    0.0016   -0.0028    0.0019   -0.0296
  136 O7    3d1-    0.0020   -0.0002   -0.0008   -0.0003    0.0001    0.0002   -0.0000   -0.0003   -0.0001   -0.0118
  137 O7    3d1-    0.0070    0.0003   -0.0014   -0.0026    0.0001   -0.0004   -0.0002   -0.0019   -0.0012    0.0030
  138 O7    3d0     0.0036    0.0027   -0.0008   -0.0007   -0.0040   -0.0005    0.0007   -0.0006    0.0035   -0.0071
  139 O7    3d0     0.0064    0.0055   -0.0014   -0.0086   -0.0058   -0.0012    0.0044   -0.0013    0.0008   -0.0268
  140 O7    3d1+    0.0017    0.0015   -0.0017   -0.0000   -0.0020    0.0014    0.0002   -0.0003    0.0014    0.0055
  141 O7    3d1+    0.0020    0.0037   -0.0013    0.0107   -0.0030    0.0033    0.0025    0.0033   -0.0012   -0.0095
  142 O7    3d2+   -0.0001   -0.0015   -0.0011   -0.0003    0.0022    0.0009   -0.0004   -0.0008   -0.0020    0.0034
  143 O7    3d2+   -0.0049   -0.0054   -0.0014    0.0045    0.0044    0.0057   -0.0024    0.0038    0.0011    0.0113
  144 H8    1s     -0.0067   -0.0000   -0.0007   -0.0067    0.0036   -0.0017   -0.0037   -0.0079   -0.0057   -0.3735
  145 H8    1s      0.0493   -0.0183    0.0017   -0.0788    0.0141   -0.0288    0.0236   -0.0365    0.0111   -0.0868
  146 H8    2px    -0.0022    0.0004    0.0009   -0.0004   -0.0007   -0.0004    0.0001    0.0000    0.0008   -0.0304
  147 H8    2px     0.0083   -0.0063    0.0025   -0.0168    0.0046   -0.0084    0.0088   -0.0081    0.0065    0.0155
  148 H8    2py     0.0025   -0.0011   -0.0009   -0.0003    0.0006    0.0005    0.0003    0.0000    0.0001    0.0352
  149 H8    2py    -0.0048   -0.0021   -0.0013    0.0122    0.0016    0.0073   -0.0024    0.0024   -0.0010   -0.0051
  150 H8    2pz     0.0053   -0.0009   -0.0017    0.0000    0.0004    0.0004   -0.0002   -0.0004    0.0000    0.0100
  151 H8    2pz    -0.0026   -0.0024   -0.0030    0.0092    0.0029    0.0039    0.0002    0.0052    0.0001    0.0013
  152 H9    1s      0.0457    0.1138    0.1055   -0.1775    0.0509   -0.1894   -0.1960   -0.1104   -0.1943    0.0184
  153 H9    1s      0.0721   -0.1033    0.0581    0.2846   -0.0217    0.0637   -0.1417   -0.0928    0.1691    0.0204
  154 H9    2px     0.0044    0.0090    0.0097   -0.0098    0.0053   -0.0115   -0.0091   -0.0027   -0.0093    0.0015
  155 H9    2px     0.0124   -0.0084   -0.0076    0.0416   -0.0024   -0.0017   -0.0108    0.0171    0.0253   -0.0369
  156 H9    2py    -0.0001    0.0001    0.0000    0.0001   -0.0001    0.0000    0.0000    0.0001    0.0001    0.0001
  157 H9    2py    -0.0016    0.0020    0.0000    0.0036   -0.0011    0.0015   -0.0026    0.0015   -0.0027    0.0060
  158 H9    2pz    -0.0051   -0.0076   -0.0021    0.0077    0.0024    0.0051    0.0066    0.0056    0.0031   -0.0006
  159 H9    2pz    -0.0058    0.0241   -0.0092   -0.0286    0.0058   -0.0039   -0.0086    0.0338   -0.0415   -0.0359
  160 H10   1s     -0.0606   -0.1406    0.1080   -0.0879   -0.0401    0.2451   -0.1916   -0.1023    0.1985    0.0071
  161 H10   1s     -0.1311    0.0752   -0.0735   -0.3222    0.0305   -0.0839   -0.1033    0.2681   -0.1352   -0.2457
  162 H10   2px    -0.0019   -0.0008   -0.0023   -0.0006   -0.0047   -0.0008   -0.0012   -0.0046   -0.0030    0.0009
  163 H10   2px     0.0069    0.0126    0.0117   -0.0125   -0.0011    0.0042   -0.0025   -0.0200   -0.0233   -0.0156
  164 H10   2py    -0.0000    0.0000   -0.0000    0.0001    0.0000    0.0000    0.0000    0.0001   -0.0000    0.0003
  165 H10   2py    -0.0005    0.0000    0.0000    0.0009    0.0002    0.0004   -0.0005    0.0003   -0.0005    0.0026
  166 H10   2pz     0.0073    0.0142   -0.0097    0.0051    0.0027   -0.0153    0.0105    0.0054   -0.0095    0.0002
  167 H10   2pz     0.0172   -0.0165    0.0157    0.0264   -0.0050    0.0154    0.0003   -0.0475    0.0377    0.0413
  168 H11   1s     -0.1094    0.0224   -0.1349   -0.2572    0.0211   -0.0037    0.0011    0.3150    0.0074   -0.0022
  169 H11   1s      0.0076   -0.0326    0.0697    0.1558   -0.0097    0.2130   -0.0137   -0.2238   -0.0157    0.1786
  170 H11   2px     0.0122   -0.0007    0.0115    0.0155    0.0010    0.0014   -0.0008   -0.0141    0.0025    0.0004
  171 H11   2px    -0.0056   -0.0009   -0.0096   -0.0338   -0.0003   -0.0095    0.0027    0.0465    0.0188   -0.0247
  172 H11   2py     0.0000   -0.0000   -0.0000   -0.0000    0.0001    0.0000    0.0000   -0.0001   -0.0001   -0.0001
  173 H11   2py     0.0005    0.0003    0.0000   -0.0003   -0.0001   -0.0002   -0.0004   -0.0004   -0.0006    0.0007
  174 H11   2pz     0.0066   -0.0033    0.0062    0.0087   -0.0046    0.0002    0.0013   -0.0078   -0.0051   -0.0002
  175 H11   2pz    -0.0054    0.0127   -0.0023   -0.0178    0.0010   -0.0067   -0.0014    0.0270   -0.0295   -0.0017
  176 H12   1s     -0.0234    0.1244    0.1362   -0.0777   -0.0199    0.2446    0.1874   -0.0891   -0.2112   -0.0032
  177 H12   1s     -0.1060   -0.0072   -0.0931   -0.3222   -0.0191   -0.0886    0.1383    0.2663    0.1736   -0.1755
  178 H12   2px     0.0014   -0.0100   -0.0118    0.0036    0.0035   -0.0129   -0.0083    0.0015    0.0101    0.0001
  179 H12   2px     0.0180   -0.0028    0.0207    0.0196    0.0030    0.0179   -0.0027   -0.0512   -0.0269    0.0220
  180 H12   2py    -0.0001    0.0001   -0.0000    0.0001    0.0000    0.0000    0.0000   -0.0000   -0.0000   -0.0002
  181 H12   2py     0.0001   -0.0000   -0.0005    0.0002    0.0001    0.0005   -0.0000   -0.0003    0.0000   -0.0025
  182 H12   2pz    -0.0031    0.0076    0.0047   -0.0025    0.0033    0.0081    0.0062   -0.0067   -0.0028   -0.0003
  183 H12   2pz    -0.0044   -0.0162   -0.0026   -0.0212   -0.0020   -0.0045    0.0053    0.0030    0.0416   -0.0063
  184 H13   1s      0.0656   -0.1329    0.0676   -0.1864   -0.0015   -0.1810    0.2064   -0.1244    0.1920   -0.0060
  185 H13   1s      0.0518    0.0552    0.0823    0.3383    0.0157    0.0725    0.0945   -0.0639   -0.2087    0.2955
  186 H13   2px    -0.0004    0.0011    0.0029    0.0010   -0.0045   -0.0027   -0.0006    0.0033    0.0028   -0.0010
  187 H13   2px    -0.0162   -0.0098   -0.0115    0.0067   -0.0021   -0.0047    0.0122    0.0392    0.0219    0.0333
  188 H13   2py    -0.0001    0.0001    0.0000    0.0001   -0.0001    0.0000    0.0000    0.0001    0.0001    0.0002
  189 H13   2py    -0.0030    0.0022    0.0000    0.0048   -0.0017    0.0021   -0.0033    0.0024   -0.0025    0.0030
  190 H13   2pz     0.0090   -0.0137    0.0057   -0.0132    0.0001   -0.0119    0.0119   -0.0061    0.0095   -0.0009
  191 H13   2pz     0.0074    0.0141    0.0030    0.0612    0.0046    0.0027   -0.0017    0.0038   -0.0472    0.0504
 
 
      Orbital           21        22        23        24        25        26        27        28        29        30
      Energy        0.0000    0.0000    0.0000    0.0000    0.0000    0.0000    0.0000    0.0000    0.0000    0.0000
      Occ. No.      1.9728    1.4530    0.0274    1.7738    0.0564    1.9115    0.2818    1.9616    0.1766    0.3938
 
    1 C1    1s     -0.0934   -0.0027    0.1722   -0.0000    0.0035   -0.0035   -0.0003   -0.0108    0.0025    0.0036
    2 C1    1s      0.1992    0.0072   -0.5755   -0.0002   -0.0117    0.0074   -0.0010    0.0221    0.0030    0.0071
    3 C1    1s     -0.1349   -0.0237   -0.1344   -0.0337   -0.0415   -0.0209   -0.1359   -0.1124    0.3074    0.7896
    4 C1    1s     -0.1329    0.0323    0.3060   -0.0152   -0.1618    0.0377    0.1858   -0.0323   -0.5370   -0.8351
    5 C1    2px    -0.3069   -0.0215    0.5896   -0.0012    0.0032   -0.0192   -0.0127   -0.0379    0.0273    0.0548
    6 C1    2px     0.0176   -0.0118    0.3611    0.0086    0.0286   -0.0104   -0.0249    0.0193    0.0688    0.0439
    7 C1    2py    -0.0131   -0.2815    0.0064   -0.0218   -0.4096   -0.0560   -0.0987    0.2902   -0.3081    0.2693
    8 C1    2py    -0.0066   -0.2419    0.0166   -0.0171   -0.5542   -0.0276   -0.1027    0.1709   -0.3174    0.2584
[...]
 
 
                    ********************************************
                    * Symmetry Adapted Cartesian Displacements *
                    ********************************************
 
 
           Irreducible representation : a  
           Basis function(s) of irrep: x, y, xy, Rz, z, xz, Ry, yz, Rx, I                                              
 
 Basis Label        Type   Center Phase
   1   C1           x         1     1
   2   C1           y         1     1
   3   C1           z         1     1
   4   C2           x         2     1
   5   C2           y         2     1
   6   C2           z         2     1
   7   C3           x         3     1
   8   C3           y         3     1
   9   C3           z         3     1
  10   C4           x         4     1
  11   C4           y         4     1
  12   C4           z         4     1
  13   C5           x         5     1
  14   C5           y         5     1
  15   C5           z         5     1
  16   C6           x         6     1
  17   C6           y         6     1
  18   C6           z         6     1
  19   O7           x         7     1
  20   O7           y         7     1
  21   O7           z         7     1
  22   H8           x         8     1
  23   H8           y         8     1
  24   H8           z         8     1
  25   H9           x         9     1
  26   H9           y         9     1
  27   H9           z         9     1
  28   H10          x        10     1
  29   H10          y        10     1
  30   H10          z        10     1
  31   H11          x        11     1
  32   H11          y        11     1
  33   H11          z        11     1
  34   H12          x        12     1
  35   H12          y        12     1
  36   H12          z        12     1
  37   H13          x        13     1
  38   H13          y        13     1
  39   H13          z        13     1
 
                     No automatic utilization of translational and rotational invariance of the energy is employed.
 
 Skipping Nuclear Charge Contribution
 RI-ERI gradients!
 
 Wavefunction type: State average CASSCF
 
 A total of 1450560. entities were prescreened and 1450560. were kept.
 A total of 68273391. entities were prescreened and 56540674. were kept.
 
 *****************************************************
 *                                                   *
 *              CI derivative coupling               *
 *                                                   *
 *****************************************************
 
  Irreducible representation: a  
 ---------------------------------------------------------
                     X             Y             Z        
 ---------------------------------------------------------
  C1                0.00890710    0.00039846   -0.00636256
  C2                0.02989327   -0.00001430    0.02863776
  C3               -0.06989789    0.00012220   -0.00331490
  C4                0.03639813    0.00003883   -0.06392186
  C5                0.03833364   -0.00013847    0.06047501
  C6               -0.04365131   -0.00007993   -0.01058342
  O7               -0.00033652   -0.00014922   -0.00479871
  H8                0.00019259   -0.00009795   -0.00005122
  H9                0.00038845   -0.00020300    0.00039911
  H10              -0.00059333    0.00004729    0.00020847
  H11               0.00065516    0.00014927   -0.00115180
  H12               0.00017262   -0.00001838    0.00063744
  H13              -0.00046191   -0.00005479   -0.00017332
 ---------------------------------------------------
 
 
 ******************************************************
 *                                                    *
 *              CSF derivative coupling               *
 *                                                    *
 ******************************************************
 
  Irreducible representation: a  
 ---------------------------------------------------------
                     X             Y             Z        
 ---------------------------------------------------------
  C1                0.00420306   -0.00137507   -0.00353124
  C2               -0.00521179    0.00105256   -0.01759459
  C3               -0.01756078   -0.00117228   -0.00205939
  C4               -0.01583887   -0.00069703    0.02798675
  C5                0.01036462    0.00059245    0.01343132
  C6                0.01774096    0.00028630   -0.00464913
  O7               -0.00435563    0.00022331    0.00808121
  H8               -0.00010243    0.00002101   -0.00006955
  H9               -0.00075337    0.00155753    0.00001608
  H10              -0.00002175   -0.00034448   -0.00020506
  H11              -0.00052544   -0.00135281    0.00101308
  H12               0.00010033    0.00045357   -0.00008710
  H13               0.00025204    0.00078661    0.00052119
 ---------------------------------------------------
 
               Energy difference:  1.034007E-01
 
 *******************************************************
 *                                                     *
 *              Total derivative coupling              *
 *                                                     *
 *******************************************************
 
  Irreducible representation: a  
 ---------------------------------------------------------
                     X             Y             Z        
 ---------------------------------------------------------
  C1                0.09034469    0.00247845   -0.06506432
  C2                0.28388949    0.00091425    0.25936456
  C3               -0.69355143    0.00000950   -0.03411813
  C4                0.33617171   -0.00032152   -0.59020900
  C5                0.38109372   -0.00074668    0.59829220
  C6               -0.40441593   -0.00048668   -0.10700265
  O7               -0.00761012   -0.00121983   -0.03832770
  H8                0.00176014   -0.00092624   -0.00056488
  H9                0.00300334   -0.00040570    0.00387591
  H10              -0.00575991    0.00011282    0.00181106
  H11               0.00581068    0.00009075   -0.01012609
  H12               0.00176977    0.00027585    0.00607762
  H13              -0.00421520    0.00025669   -0.00115499
 ---------------------------------------------------
 
               norm:       1.3356
---------------------------------------------------------------------------------------------
  Nr.	 Label		Type		Offset		Length	   Atime	  Address
---------------------------------------------------------------------------------------------
  1	DENS        	REAL	17490731990486	      146688          32	[0x7f4309ffb010]
---------------------------------------------------------------------------------------------
Maximal available memory for Molcas = 7999853312
MEMORY WARNING: some memory allocations are not released!
--- Stop Module: alaska at Fri Nov  8 12:23:42 2019 /rc=_RC_ALL_IS_WELL_ ---
*** files: xmldump
    saved to directory /scratch/molcas_jobs/01_phenol_def2svpd
--- Module alaska spent 41 seconds ---

--- Start Module: alaska at Fri Nov  8 12:23:42 2019 ---
 
()()()()()()()()()()()()()()()()()()()()()()()()()()()()()()()()()()()()()()()()()()()()()()()()()()

                                              &ALASKA

                       only a single process is used, running in SERIAL mode
                       available to each process: 8.0 GB of memory, 1 thread
()()()()()()()()()()()()()()()()()()()()()()()()()()()()()()()()()()()()()()()()()()()()()()()()()()
 
[ process      0]: xquit (rc =     65): _INVOKED_OTHER_MODULE_
--- Stop Module: alaska at Fri Nov  8 12:23:42 2019 /rc=_RC_INVOKED_OTHER_MODULE_ ---
*** files: xmldump
    saved to directory /scratch/molcas_jobs/01_phenol_def2svpd

--- Start Module: mclr at Fri Nov  8 12:23:42 2019 ---
 
()()()()()()()()()()()()()()()()()()()()()()()()()()()()()()()()()()()()()()()()()()()()()()()()()()

                                               &MCLR

                       only a single process is used, running in SERIAL mode
                       available to each process: 8.0 GB of memory, 1 thread
()()()()()()()()()()()()()()()()()()()()()()()()()()()()()()()()()()()()()()()()()()()()()()()()()()
 
 No .RLXPT2  or MCKINT  , I hope that is OK
 Seward mode is assumed, reading perturbation from ONEINT  
 OrdInt status: non-squared
 
++   Wave function specifications:
     -----------------------------
 
     Number of closed shell electrons             38
     Number of electrons in active shells         12
     Max number of holes in RAS1 space             0
     Max number of electrons in RAS3 space         0
     Number of inactive orbitals                  19
     Number of active orbitals                    11
     Number of secondary orbitals                161
     Spin quantum number                         0.0
     State symmetry                                1
     Number of roots                               3
     States considered                             1     2     3
     Weights                                   0.333 0.333 0.333
 
     Symmetry species                              1
     Skiped sym. species                           0
     Frozen orbitals                               0
     Inactive orbitals                            19
     Active orbitals                              11
     RAS1 orbitals                                 0
     RAS2 orbitals                                11
     RAS3 orbitals                                 0
     Deleted orbitals                              0
     Number of basis functions                   191
     Number of Orbitals                          191
     Number of configurations                    60984
     Number of combinations                   106953
     Natural orbitals are used in the last CI
     RASSCF state energy =           -305.3325334754
     Size of explicit Hamiltonian in PCG:        100
--
 
     Convergence threshold=               1.0000E-04
     Max number of iterations in PCG:            200
     Lagrangian multipliers are calculated for states no.   2/  3
 
 
  Reordering of the Cholesky vectors to full storage. 
  Elapsed time for the reordering section:   9.999999999999981E-003
  CPU time for the reordering section:   9.999999999999981E-003
 
 TIMING INFORMATION:   CPU(s)   %CPU   Elapsed(s)
 Transformation          0.60   60.0         0.63
 Generation              7.48   99.1         7.55
 TOTAL                   8.09   98.7         8.20
 
        Iteration       Delta       Res(kappa)  Res(CI)     DeltaK      DeltaC
            1          0.0411487   0.0117674   0.0055096   0.0000388   0.0000798
            2          0.0146674   0.0080367   0.0044699   0.0000197   0.0000226
            3          0.0073653   0.0052681   0.0038362   0.0000134   0.0000078
            4          0.0049264   0.0028857   0.0034061   0.0000105   0.0000037
            5          0.0030720   0.0035416   0.0025762   0.0000054   0.0000034
            6          0.0015587   0.0025114   0.0018082   0.0000024   0.0000021
            7          0.0005472   0.0012951   0.0011817   0.0000009   0.0000006
            8          0.0002014   0.0008423   0.0007342   0.0000004   0.0000002
            9          0.0000776   0.0005364   0.0004319   0.0000001   0.0000001
           10          0.0000290   0.0003148   0.0002643   0.0000000   0.0000000
           11          0.0000115   0.0001550   0.0001857   0.0000000   0.0000000
           12          0.0000047   0.0001023   0.0001182   0.0000000   0.0000000
      Perturbation no:    1 converged in   12 steps.
 
 
      The response parameters are written to the file RESP.
--- Stop Module: mclr at Fri Nov  8 12:24:15 2019 /rc=_RC_ALL_IS_WELL_ ---
*** files: xmldump
    saved to directory /scratch/molcas_jobs/01_phenol_def2svpd
--- Module mclr spent 32 seconds ---

--- Start Module: alaska at Fri Nov  8 12:24:15 2019 ---
 
()()()()()()()()()()()()()()()()()()()()()()()()()()()()()()()()()()()()()()()()()()()()()()()()()()

                                              &ALASKA

                       only a single process is used, running in SERIAL mode
                       available to each process: 8.0 GB of memory, 1 thread
()()()()()()()()()()()()()()()()()()()()()()()()()()()()()()()()()()()()()()()()()()()()()()()()()()
 
 
                     Threshold for contributions to the gradient: .100E-06
 
 
                    ********************************************
                    * Symmetry Adapted Cartesian Displacements *
                    ********************************************
 
 
           Irreducible representation : a  
           Basis function(s) of irrep: x, y, xy, Rz, z, xz, Ry, yz, Rx, I                                              
 
 Basis Label        Type   Center Phase
   1   C1           x         1     1
   2   C1           y         1     1
   3   C1           z         1     1
   4   C2           x         2     1
   5   C2           y         2     1
   6   C2           z         2     1
   7   C3           x         3     1
   8   C3           y         3     1
   9   C3           z         3     1
  10   C4           x         4     1
  11   C4           y         4     1
  12   C4           z         4     1
  13   C5           x         5     1
  14   C5           y         5     1
  15   C5           z         5     1
  16   C6           x         6     1
  17   C6           y         6     1
  18   C6           z         6     1
  19   O7           x         7     1
  20   O7           y         7     1
  21   O7           z         7     1
  22   H8           x         8     1
  23   H8           y         8     1
  24   H8           z         8     1
  25   H9           x         9     1
  26   H9           y         9     1
  27   H9           z         9     1
  28   H10          x        10     1
  29   H10          y        10     1
  30   H10          z        10     1
  31   H11          x        11     1
  32   H11          y        11     1
  33   H11          z        11     1
  34   H12          x        12     1
  35   H12          y        12     1
  36   H12          z        12     1
  37   H13          x        13     1
  38   H13          y        13     1
  39   H13          z        13     1
 
                     No automatic utilization of translational and rotational invariance of the energy is employed.
 
 Skipping Nuclear Charge Contribution
 RI-ERI gradients!
 
 Wavefunction type: State average CASSCF
 
 A total of 1450560. entities were prescreened and 1450532. were kept.
 A total of 68273616. entities were prescreened and 55952434. were kept.
 
 *****************************************************
 *                                                   *
 *              CI derivative coupling               *
 *                                                   *
 *****************************************************
 
  Irreducible representation: a  
 ---------------------------------------------------------
                     X             Y             Z        
 ---------------------------------------------------------
  C1               -0.00037893    0.01140790   -0.00051994
  C2               -0.00053538    0.00061266   -0.00003955
  C3                0.00102171   -0.00265439    0.00007394
  C4               -0.00045130   -0.00066329    0.00094951
  C5               -0.00041793   -0.00389186   -0.00075345
  C6                0.00026286   -0.00087883    0.00024534
  O7                0.00025207   -0.00771555    0.00007102
  H8                0.00025199   -0.00019734    0.00001731
  H9               -0.00003430   -0.00028021   -0.00006097
  H10               0.00001343    0.00146125   -0.00000285
  H11              -0.00001066    0.00028471    0.00000805
  H12              -0.00000417    0.00177207   -0.00000667
  H13               0.00003061    0.00074287    0.00001827
 ---------------------------------------------------
 
 
 ******************************************************
 *                                                    *
 *              CSF derivative coupling               *
 *                                                    *
 ******************************************************
 
  Irreducible representation: a  
 ---------------------------------------------------------
                     X             Y             Z        
 ---------------------------------------------------------
  C1                0.00026463    0.00749975    0.00033970
  C2                0.00047513   -0.00931540    0.00018495
  C3                0.00034824   -0.00836944    0.00003149
  C4                0.00020270   -0.00511071   -0.00047651
  C5               -0.00024615   -0.00481322   -0.00019676
  C6               -0.00049437   -0.00953683   -0.00108046
  O7               -0.00022403    0.01174448    0.00060372
  H8               -0.00021064   -0.00002888   -0.00014357
  H9                0.00036011    0.00771168    0.00044921
  H10              -0.00003349    0.00134753   -0.00002772
  H11              -0.00001382   -0.00035398    0.00002949
  H12               0.00007466    0.00116325    0.00001322
  H13              -0.00052093    0.00745857   -0.00011093
 ---------------------------------------------------
 
               Energy difference:  7.389457E-02
 
 *******************************************************
 *                                                     *
 *              Total derivative coupling              *
 *                                                     *
 *******************************************************
 
  Irreducible representation: a  
 ---------------------------------------------------------
                     X             Y             Z        
 ---------------------------------------------------------
  C1               -0.00486335    0.16188053   -0.00669656
  C2               -0.00677000   -0.00102443   -0.00035022
  C3                0.01417481   -0.04429070    0.00103204
  C4               -0.00590461   -0.01408684    0.01237297
  C5               -0.00590191   -0.05748099   -0.01039309
  C6                0.00306283   -0.02142979    0.00223970
  O7                0.00318716   -0.09266853    0.00156481
  H8                0.00319942   -0.00269948    0.00009065
  H9               -0.00010412    0.00391971   -0.00037585
  H10               0.00014826    0.02112233   -0.00006632
  H11              -0.00015801    0.00349900    0.00013842
  H12               0.00001818    0.02514429   -0.00007707
  H13              -0.00010662    0.01751169    0.00013634
 ---------------------------------------------------
 
               norm:       0.2069
---------------------------------------------------------------------------------------------
  Nr.	 Label		Type		Offset		Length	   Atime	  Address
---------------------------------------------------------------------------------------------
  1	DENS        	REAL	17521187577302	      146688          32	[0x7f7bc45ab010]
---------------------------------------------------------------------------------------------
Maximal available memory for Molcas = 7999853312
MEMORY WARNING: some memory allocations are not released!
--- Stop Module: alaska at Fri Nov  8 12:24:57 2019 /rc=_RC_ALL_IS_WELL_ ---
*** files: xmldump
    saved to directory /scratch/molcas_jobs/01_phenol_def2svpd
--- Module alaska spent 41 seconds ---

>>> COPY 01_phenol_def2svpd.RasOrb /scratch/molcas_jobs/01_phenol_def2svpd/backup/10_foreach_zmat/01_phenol_def2svpd.20.RasOrb

>>> COPY 01_phenol_def2svpd.rasscf.molden /scratch/molcas_jobs/01_phenol_def2svpd/backup/10_foreach_zmat/01_phenol_def2svpd.rasscf.20.molden

>>> COPY 01_phenol_def2svpd.JobIph /scratch/molcas_jobs/01_phenol_def2svpd/backup/10_foreach_zmat/01_phenol_def2svpd.20.JobIph

>>> COPY 01_phenol_def2svpd.rassi.h5 /scratch/molcas_jobs/01_phenol_def2svpd/backup/10_foreach_zmat/01_phenol_def2svpd.rassi.20.h5

>>> END FOREACH

    Timing: Wall=8086.13 User=7642.05 System=355.29
