   This run of MOLCAS is using the pymolcas driver

                             OPE
                             OPE          NMOL  CASOP  ENMOLC A   SO
                 OPE        NMOLC        AS  OP EN  MO LC     AS  OP
                OPENM       OL CA        SO  PE NM  OL CA     SOP EN
                OP EN      MO   LC       AS  OP ENMOL  CASO   PENMOL
                OP  EN     MO   LC       AS  OP EN     MO     LC ASO
               OP   E  NMOL  C  AS       OP  EN MO     LC     AS  OP
               OP  E   NMO   LC AS        OPEN  MO     LCASOP EN   M
               O  PEN   MO  LCA  SO
            OPE   NMO   L   CAS    OP
        OPENMOL  CASOP     ENMOL   CASOPE
     OPENMOLCA   SOPENMOLCASOPEN   MOLCASOPE
    OPENMOLCAS   OP           EN   MOL    CAS
    OPENMOLCAS       OP  ENM        O     LCA
    OPENMOLCAS    OPEN  MOLCASO     P  E  NMO
    OPENMOLCAS     OP               E  N  MOL
    OPENMOLCA   SO           PENM   O  L  CAS    OPEN    MO    LCAS
    OPENMOLCA   SOP           ENM   O  L  CAS   OP  EN  MOLC  AS   O
    OPENMOLCA   SOPE           NM      O  LCA   S      OP  EN MO
    OPENMOLC                AS         O  PEN   M      OL  CA  SOPE
    OPENMO        LCASOPE  NMOL        C  ASO   P      ENMOLC     AS
    OPE     NMO      LCA  SO     P     E   NM   OL  CA SO  PE N   MO
          OPENMOLCA            SOPE   NMO        LCAS  O    P  ENMO
     OPENMOLCASOPENMOLCASOPENMOLCASOPENMOLCA
        OPENMOLCASOPENMOLCASOPENMOLCASOPE
            OPENMOLCASOPENMOLCASOPENM
               OPENMOLCASOPENMOLCA        version 17.0
                   OPENMOLCASO
                       OPE                tag o171030-1800-dirty

 OpenMolcas is free software; you can redistribute it and/or modify it
 under the terms of the GNU Lesser General Public License version 2.1.
 OpenMolcas is distributed in the hope that it will be useful, but it
 is provided "as is" and without any express or implied warranties.
 For more details see the full text of the license in the file
 LICENSE or in <http://www.gnu.org/licenses/>.

                 Copyright (C) The OpenMolcas Authors
           For the author list and the recommended citation,
                   consult the file CONTRIBUTORS.md

           *************************************************
           * pymolcas version py2.05                       *
           *   build 941238a576f203fce0074eac2dbf6692      *
           *   (after the EMIL interpreter by V. Veryazov) *
           *************************************************

configuration info
------------------
C Compiler ID: Intel
C flags: -std=gnu99
Fortran Compiler ID: Intel
Fortran flags: -fpp -i8 -r8 -heap-arrays
Definitions: _MOLCAS_;_I8_;_LINUX_;_GA_;_MOLCAS_MPP_;SCALAPACK;_MKL_
Parallel: ON (GA=ON)


   ---------------------------------------------------------------
  |
  |           Project: lif
  |    Submitted from: /scratch/molcas_jobs/lif
  |      Scratch area: /scratch/molcas_jobs/scratch/lif
  |   Save outputs to: /scratch/molcas_jobs/lif
  |            Molcas: /scratch/programme/openmolcas_ompi165_ga54b
  |
  | Scratch area is NOT empty
  |
  |    MOLCAS_DRIVER = /user/johannes/bin/pymolcas
  |   MOLCAS_LICENSE = /scratch/programme/openmolcas_ompi165_ga54b
  |    MOLCAS_MOLDEN = ON
  |    MOLCAS_NPROCS = 1
  |     MOLCAS_PRINT = 2
  |    MOLCAS_SOURCE = /scratch/programme/openmolcas_ompi165_ga54b
  | MOLCAS_STRUCTURE = 0
  |
   ---------------------------------------------------------------

++ ---------   Input file   ---------

>>> EXPORT backup_path = /scratch/molcas_jobs/lif/backup/07_foreach

>>> COPY /scratch/molcas_jobs/lif/backup/lif.67sym.RasOrb $Project.RasOrb

>>> FOREACH STEP IN (0..72)

  >>> EVAL DIST = 0.8+($STEP*0.1)

  &GATEWAY
       coord
        2
  
        Li 0.00000000    0.00000000   0.00000000
        F  0.00000000    0.00000000   $DIST
       basis
        POPSLIF

  &SEWARD

  &RASSCF
   charge
    0
   spin
    1
   fileorb
    $Project.RasOrb
   ciroot
    2 2 1

  >>> COPY $Project.JobIph JOB001

  &RASSI

  >>> RM JOB001

  &ALASKA
   nac
    1 2

  >>> COPY $Project.RasOrb $backup_path/$Project.$STEP.RasOrb

  >>> COPY $Project.rasscf.molden $backup_path/$Project.rasscf.$STEP.molden

  >>> COPY $Project.JobIph $backup_path/$Project.$STEP.JobIph

  >>> COPY $Project.rassi.h5 $backup_path/$Project.rassi.$STEP.h5

>>> END FOREACH

-- ----------------------------------

>>> EXPORT backup_path = /scratch/molcas_jobs/lif/backup/07_foreach

>>> COPY /scratch/molcas_jobs/lif/backup/lif.67sym.RasOrb lif.RasOrb

>>> EXPORT STEP = 0

>>> EVAL DIST = 0.8+(0*0.1) = 0.8

*** symbolic link created: INPORB -> lif.RasOrb
--- Start Module: gateway at Thu Nov  7 13:42:57 2019 ---
 
()()()()()()()()()()()()()()()()()()()()()()()()()()()()()()()()()()()()()()()()()()()()()()()()()()

                                              &GATEWAY

                       only a single process is used, running in SERIAL mode
                       available to each process: 8.0 GB of memory, 1 thread
()()()()()()()()()()()()()()()()()()()()()()()()()()()()()()()()()()()()()()()()()()()()()()()()()()
 
      Found SYMMETRY generators: xy y
 
++    Symmetry information:
      ---------------------
 
                    --- Group Generators ---
                    Rotation around the z-axis  
                    Reflection in the xz-plane  
 
                    Character Table for C2v
 
                             E   C2(z) s(xz) s(yz)
                    a1       1     1     1     1  z
                    b1       1    -1     1    -1  x, xz, Ry
                    a2       1     1    -1    -1  xy, Rz, I
                    b2       1    -1    -1     1  y, yz, Rx
--
 
 
++    Basis set information:
      ----------------------
 
 
      Basis set label: LI.POPSLIF.........
 
      Electronic valence basis set:
      ------------------
      Associated Effective Charge  3.000000 au
      Associated Actual Charge     3.000000 au
      Nuclear Model: Point charge
 
      Shell  nPrim  nBasis  Cartesian Spherical Contaminant
         s      12       5        X                  
         p       6       4        X                  
         d       1       1                 X         
 
 
      Basis set label: F.POPSLIF.........
 
      Electronic valence basis set:
      ------------------
      Associated Effective Charge  9.000000 au
      Associated Actual Charge     9.000000 au
      Nuclear Model: Point charge
 
      Shell  nPrim  nBasis  Cartesian Spherical Contaminant
         s      12       5        X                  
         p       6       4        X                  
         d       1       1                 X         
--
 
 
++    Molecular structure info:
      -------------------------
 
                    ************************************************ 
                    **** Cartesian Coordinates / Bohr, Angstrom **** 
                    ************************************************ 
 
     Center  Label                x              y              z                     x              y              z
        1      LI1              0.000000       0.000000       0.000000              0.000000       0.000000       0.000000
        2      F2               0.000000       0.000000       1.511781              0.000000       0.000000       0.800000
--
 
 
            Nuclear Potential Energy             17.85973086 au
 
--- Stop Module: gateway at Thu Nov  7 13:42:57 2019 /rc=_RC_ALL_IS_WELL_ ---
*** files: xmldump
    saved to directory /scratch/molcas_jobs/lif

*** symbolic link created: INPORB -> lif.RasOrb
--- Start Module: seward at Thu Nov  7 13:42:57 2019 ---
 
()()()()()()()()()()()()()()()()()()()()()()()()()()()()()()()()()()()()()()()()()()()()()()()()()()

                                              &SEWARD

                       only a single process is used, running in SERIAL mode
                       available to each process: 8.0 GB of memory, 1 thread
()()()()()()()()()()()()()()()()()()()()()()()()()()()()()()()()()()()()()()()()()()()()()()()()()()
 
               SEWARD will generate:
                  Multipole Moment integrals up to order  2
                  Kinetic Energy integrals
                  Nuclear Attraction integrals (point charge)
                  One-Electron Hamiltonian integrals
                  Velocity integrals
                  Two-Electron Repulsion integrals
 
                   Integrals are discarded if absolute value <: 0.10E-13
                   Integral cutoff threshold is set to       <: 0.10E-15
 
                    Unitary symmetry adaptation
 
 
            Nuclear Potential Energy             17.85973086 au
 
 
      Basis set specifications :
      Symmetry species         a1   b1   a2   b2 
      Basis functions           22   10    2   10
 
 
  Input file to MOLDEN was generated!
 
--- Stop Module: seward at Thu Nov  7 13:42:58 2019 /rc=_RC_ALL_IS_WELL_ ---
*** files: lif.GssOrb lif.guessorb.h5 lif.guessorb.molden xmldump
    saved to directory /scratch/molcas_jobs/lif

*** symbolic link created: INPORB -> lif.RasOrb
--- Start Module: rasscf at Thu Nov  7 13:42:58 2019 ---
 
()()()()()()()()()()()()()()()()()()()()()()()()()()()()()()()()()()()()()()()()()()()()()()()()()()

                                              &RASSCF

                       only a single process is used, running in SERIAL mode
                       available to each process: 8.0 GB of memory, 1 thread
()()()()()()()()()()()()()()()()()()()()()()()()()()()()()()()()()()()()()()()()()()()()()()()()()()
 
 
      Header of the ONEINT file:
      --------------------------
      
      Integrals generated by seward 4.2.0  , Thu Nov  7 13:42:58 2019
 
 
      OrdInt status: non-squared
 
 
      Cartesian coordinates in Angstrom:
      -----------------------------------------------------
      No.  Label        X            Y            Z        
      -----------------------------------------------------
       1   LI1        0.00000000   0.00000000   0.00000000
       2   F2         0.00000000   0.00000000   0.80000000
      -----------------------------------------------------
      Nuclear repulsion energy =   17.85973086
 
++    Wave function specifications:
      -----------------------------
 
      Number of closed shell electrons           6
      Number of electrons in active shells       6
      Max number of holes in RAS1 space          0
      Max nr of electrons in RAS3 space          0
      Number of inactive orbitals                3
      Number of active orbitals                  7
      Number of secondary orbitals              34
      Spin quantum number                      0.0
      State symmetry                             1
--
 
++    Orbital specifications:
      -----------------------
 
      Symmetry species                           1   2   3   4
                                                a1  b1  a2  b2
      Frozen orbitals                            0   0   0   0
      Inactive orbitals                          3   0   0   0
      Active orbitals                            3   2   0   2
      RAS1 orbitals                              0   0   0   0
      RAS2 orbitals                              3   2   0   2
      RAS3 orbitals                              0   0   0   0
      Secondary orbitals                        16   8   2   8
      Deleted orbitals                           0   0   0   0
      Number of basis functions                 22  10   2  10
--
 
++    CI expansion specifications:
      ----------------------------
 
      Number of CSFs                           142
      Number of determinants                   178
      Number of root(s) required                 2
      Root chosen for geometry opt.              2
      CI roots used                              1     2
      weights                                0.500 0.500
      highest root included in the CI            2
      max. size of the explicit Hamiltonian    142
--
 
++    Optimization specifications:
      ----------------------------
 
      RASSCF algorithm: Conventional
      Maximum number of macro iterations       200
      Maximum number of SX iterations          100
      Threshold for RASSCF energy            0.100E-07
      Threshold for max MO rotation          0.100E+00
      Threshold for max BLB element          0.100E-03
      Level shift parameter                  0.500E+00
      Make Quasi-Newton update
--
 
      The MO-coefficients are taken from the file:
      /scratch/molcas_jobs/lif/lif.RasOrb                                                                                             
      Title: RASSCF average (pseudo-natural) orbitals                                      
 
      Total molecular charge    0.00
 
      ************************************************************************************************************************
      *                                                                                                                      *
      *                                            Wave function control section                                             *
      *                                                                                                                      *
      ************************************************************************************************************************
 
 
                                         RASSCF iterations: Energy and convergence statistics
                                         ----------------------------------------------------
 
      Iter CI   SX   CI       RASSCF       Energy    max ROT     max BLB   max BLB  Level Ln srch  Step   QN   Walltime
          iter iter root      energy       change     param      element    value   shift minimum  type update hh:mm:ss
 Nr of preliminary CI iterations:   1
        1   1  100    0  -105.71334303    0.00E+00   0.90E-01    4  18 1  0.46E+00*  0.28   0.00    SX    NO    0:00:00
        2   1   92    0  -105.99166425   -0.28E+00* -0.99E-01    4  15 1  0.85E-01*  0.26   0.00    SX    NO    0:00:00
        3   1   56    0  -106.02328545   -0.32E-01*  0.86E-01    4  15 1  0.32E-01*  0.25   0.00    SX    NO    0:00:00
        4   1   61    0  -106.03155703   -0.83E-02*  0.63E-01    4  15 1  0.15E-01*  0.25   0.00    SX    NO    0:00:00
        5   1   29    0  -106.03509900   -0.35E-02*  0.67E-01    4  15 1  0.89E-02*  0.24   2.50    LS   YES    0:00:00
        6   1   26    0  -106.03745090   -0.24E-02*  0.57E-01    4  10 1 -0.59E-02*  0.24   2.13    LS   YES    0:00:00
        7   1   27    0  -106.03831815   -0.87E-03*  0.42E-01    1   7 2  0.73E-02*  0.24   1.33    QN   YES    0:00:00
        8   1   23    0  -106.03876966   -0.45E-03*  0.40E-01    1   7 2  0.45E-02*  0.24   2.09    LS   YES    0:00:00
        9   1   26    0  -106.03893675   -0.17E-03* -0.93E-02    1   6 2 -0.22E-02*  0.24   1.17    QN   YES    0:00:00
       10   1   24    0  -106.03903524   -0.98E-04* -0.64E-02    3  12 1 -0.11E-02*  0.24   1.71    LS   YES    0:00:00
       11   1   25    0  -106.03905585   -0.21E-04*  0.38E-02    3   6 1  0.17E-02*  0.23   1.04    QN   YES    0:00:00
       12   1   24    0  -106.03907267   -0.17E-04*  0.42E-02    1   7 2 -0.71E-03*  0.23   2.13    LS   YES    0:00:00
       13   1   20    0  -106.03907878   -0.61E-05*  0.19E-02    3  12 1  0.87E-03*  0.23   0.97    QN   YES    0:00:00
       14   1   19    0  -106.03908208   -0.33E-05*  0.21E-02    3  12 1  0.56E-03*  0.23   2.13    LS   YES    0:00:00
       15   1   18    0  -106.03908340   -0.13E-05* -0.14E-02    4  10 1  0.22E-03*  0.23   1.03    QN   YES    0:00:00
       16   1   19    0  -106.03908426   -0.86E-06* -0.16E-02    3  12 1 -0.17E-03*  0.23   2.15    LS   YES    0:00:00
       17   1   20    0  -106.03908459   -0.33E-06*  0.70E-03    3  12 1 -0.35E-03*  0.23   0.96    QN   YES    0:00:00
       18   1   18    0  -106.03908493   -0.34E-06*  0.70E-03    3  12 1 -0.12E-03*  0.23   1.99    LS   YES    0:00:00
       19   1   16    0  -106.03908504   -0.11E-06* -0.47E-03    3  12 1  0.10E-03*  0.23   0.99    QN   YES    0:00:00
       20   1   14    0  -106.03908510   -0.63E-07* -0.48E-03    3  12 1  0.59E-04   0.23   1.57    QN   YES    0:00:00
       21   1   14    0  -106.03908513   -0.27E-07* -0.23E-03    4   8 1  0.20E-04   0.23   1.30    QN   YES    0:00:00
       22   1   12    0  -106.03908513   -0.61E-08   0.12E-03    4   8 1  0.10E-04   0.23   1.50    QN   YES    0:00:00
      Convergence after 22 iterations
       23   1   12    0  -106.03908514   -0.21E-08   0.12E-03    3  12 1 -0.65E-05   0.23   1.50    QN   YES    0:00:00
 
      ************************************************************************************************************************
                                                      Wave function printout:
                       occupation of active orbitals, and spin coupling of open shells (u,d: Spin up or down)
      ************************************************************************************************************************
 
      Note: transformation to natural orbitals
      has been made, which may change the order of the CSFs.
 
      printout of CI-coefficients larger than  0.05 for root  1
      energy=    -106.121047
      conf/sym  111 22 44     Coeff  Weight
            45  200 20 20  -0.94711 0.89702
            46  200 ud 20   0.05183 0.00269
            48  200 20 ud   0.05183 0.00269
            49  200 ud ud   0.06127 0.00375
            57  ud0 20 20  -0.06132 0.00376
            58  ud0 ud 20  -0.05955 0.00355
            60  ud0 20 ud  -0.05955 0.00355
            81  u0d 20 20  -0.26796 0.07180
 
      printout of CI-coefficients larger than  0.05 for root  2
      energy=    -105.957123
      conf/sym  111 22 44     Coeff  Weight
            45  200 20 20   0.26626 0.07089
            81  u0d 20 20  -0.94881 0.90025
            82  u0d ud 20  -0.05285 0.00279
            84  u0d 20 ud  -0.05285 0.00279
            85  u0d ud ud   0.06058 0.00367
            93  0ud 20 20   0.07453 0.00556
 
      Natural orbitals and occupation numbers for root  1
      sym 1:   1.976151   0.022636   0.001090
      sym 2:   1.984291   0.015771
      sym 4:   1.984291   0.015771
 
      Natural orbitals and occupation numbers for root  2
      sym 1:   1.358207   0.004789   0.637269
      sym 2:   1.985001   0.014866
      sym 4:   1.985001   0.014866
 
      ************************************************************************************************************************
      *                                                                                                                      *
      *                                                    Final results                                                     *
      *                                                                                                                      *
      ************************************************************************************************************************
 
 
++    Wave function specifications:
      -----------------------------
 
      Number of closed shell electrons           6
      Number of electrons in active shells       6
      Max number of holes in RAS1 space          0
      Max nr of electrons in RAS3 space          0
      Number of inactive orbitals                3
      Number of active orbitals                  7
      Number of secondary orbitals              34
      Spin quantum number                      0.0
      State symmetry                             1
--
 
++    Orbital specifications:
      -----------------------
 
      Symmetry species                           1   2   3   4
                                                a1  b1  a2  b2
      Frozen orbitals                            0   0   0   0
      Inactive orbitals                          3   0   0   0
      Active orbitals                            3   2   0   2
      RAS1 orbitals                              0   0   0   0
      RAS2 orbitals                              3   2   0   2
      RAS3 orbitals                              0   0   0   0
      Secondary orbitals                        16   8   2   8
      Deleted orbitals                           0   0   0   0
      Number of basis functions                 22  10   2  10
--
 
++    CI expansion specifications:
      ----------------------------
 
      Number of CSFs                           142
      Number of determinants                   178
      Number of root(s) required                 2
      CI roots used                              1     2
      weights                                0.500 0.500
      highest root included in the CI            2
      Root passed to geometry opt.               2
--
 
++    Final optimization conditions:
      ------------------------------
 
      Average CI energy                            -106.03908514
      RASSCF energy for state  2                   -105.95712346
      Super-CI energy                                -0.00000000
      RASSCF energy change                           -0.00000000
      Max change in MO coefficients              -0.526E-03
      Max non-diagonal density matrix element     0.123E-03
      Maximum BLB matrix element                 -0.649E-05
      (orbital pair   3,  12 in symmetry   1)
      Norm of electronic gradient            0.145E+00
--
 
 
      Final state energy(ies):
      ------------------------
 
::    RASSCF root number  1 Total energy:   -106.12104681
::    RASSCF root number  2 Total energy:   -105.95712346
 
++    Molecular orbitals:
      -------------------
 
      Pseudonatural active orbitals and approximate occupation numbers
 
 
 
 
      Molecular orbitals for symmetry species 1: a1 
 
 
      Orbital            1         2         3         4         5         6         7         8         9
      Energy      -26.3847   -2.8692   -1.4888    0.0000    0.0000    0.0000    0.0160    0.0230    0.0831
      Occ. No.      2.0000    2.0000    2.0000    1.4858    0.0144    0.4999    0.0000    0.0000    0.0000
 
    1 LI1   1s      0.0001    0.5654   -0.2326    0.1949   -0.1394   -0.0866    0.0092   -0.0100    0.0153
    2 LI1   1s     -0.0001    0.3372   -0.2706    0.3516    0.0404   -0.1601    0.0135   -0.0160    0.0697
    3 LI1   1s     -0.0001    0.0014    0.0096   -0.0150   -0.0390    0.0089    1.0484   -1.3176   -0.8138
    4 LI1   1s      0.0004   -0.0054   -0.0452    0.0247   -0.0292    0.4353   -0.8441    1.2185    2.2559
    5 LI1   1s     -0.0019    0.0238    0.1585   -0.1951   -0.5945    0.6410    0.4691   -0.4337   -2.2695
    6 LI1   2pz     0.0000    0.0294    0.0645   -0.4512   -1.1963   -0.0191    0.0144    0.0272    0.2080
    7 LI1   2pz    -0.0005    0.0051    0.0400   -0.1026   -0.3015   -0.0741    0.2195    0.1320   -0.4013
    8 LI1   2pz     0.0001    0.0028   -0.0024    0.0285    0.1112   -0.1076   -0.2849   -0.4556    1.4369
    9 LI1   2pz    -0.0000   -0.0010   -0.0001   -0.0036   -0.0142    0.0077    0.9056    0.8561   -0.6190
   10 LI1   3d0    -0.0000    0.0121    0.0172   -0.1108   -0.2324   -0.0101   -0.0014    0.0166    0.0147
   11 LI1   3d2+   -0.0000   -0.0000    0.0000   -0.0000   -0.0000   -0.0000    0.0000   -0.0000    0.0000
   12 F2    1s      0.5473   -0.0460   -0.1213    0.0257   -0.0127    0.0096    0.0008    0.0007    0.0051
   13 F2    1s      0.4735   -0.0761   -0.2063    0.0471   -0.0154    0.0170    0.0016    0.0013    0.0088
   14 F2    1s      0.0025   -0.0232   -0.1741    0.2471    0.7583   -0.0969   -0.3231    0.1009    0.9205
   15 F2    1s     -0.0017    0.0355    0.5205    0.2360    0.5605   -0.0977    0.0350   -0.0566   -0.3039
   16 F2    1s      0.0073    0.2126    0.6269   -0.1876    0.2040   -0.0646   -0.0105   -0.0049   -0.0227
   17 F2    2pz    -0.0009   -0.0586    0.0546    0.3282   -0.4991   -0.0215    0.0007    0.0050    0.0074
   18 F2    2pz    -0.0000   -0.0941    0.0485    0.5327   -0.3834   -0.0249    0.0025    0.0098    0.0206
   19 F2    2pz     0.0001    0.0083    0.0237    0.3529    0.6383   -0.0591   -0.0093    0.0063    0.0814
   20 F2    2pz    -0.0002   -0.0097    0.0148    0.1654    0.5240   -0.1413    0.0329   -0.1838   -0.5910
   21 F2    3d0     0.0002    0.0295   -0.0008   -0.0128    0.0148   -0.0108    0.0011   -0.0036   -0.0061
   22 F2    3d2+   -0.0000    0.0000   -0.0000   -0.0000    0.0000    0.0000   -0.0000   -0.0000   -0.0000
 
 
 
      Molecular orbitals for symmetry species 2: b1 
 
 
      Orbital            1         2         3         4
      Energy        0.0000    0.0000    0.0172    0.0831
      Occ. No.      1.9833    0.0166    0.0000    0.0000
 
    1 LI1   2px     0.1532   -0.3237   -0.0155    0.0401
    2 LI1   2px     0.0426   -0.1000    0.1171    0.7139
    3 LI1   2px     0.0017    0.0088   -0.3459   -1.8778
    4 LI1   2px    -0.0017   -0.0003    1.1815    0.8299
    5 LI1   3d1+    0.0548   -0.0975    0.0060    0.0606
    6 F2    2px     0.3046    0.5318    0.0035   -0.0143
    7 F2    2px     0.4785    0.3903    0.0059   -0.0221
    8 F2    2px     0.3173   -0.6027   -0.0033   -0.0103
    9 F2    2px    -0.0451    0.0214   -0.0647   -0.0189
   10 F2    3d1+   -0.0286   -0.0247   -0.0000   -0.0009
 
 
 
      Molecular orbitals for symmetry species 4: b2 
 
 
      Orbital            1         2         3         4
      Energy        0.0000    0.0000    0.0172    0.0831
      Occ. No.      1.9833    0.0166    0.0000    0.0000
 
    1 LI1   2py     0.1532   -0.3237   -0.0155    0.0401
    2 LI1   2py     0.0426   -0.1000    0.1171    0.7139
    3 LI1   2py     0.0017    0.0088   -0.3459   -1.8778
    4 LI1   2py    -0.0017   -0.0003    1.1815    0.8299
    5 LI1   3d1-    0.0548   -0.0975    0.0060    0.0606
    6 F2    2py     0.3046    0.5318    0.0035   -0.0143
    7 F2    2py     0.4785    0.3903    0.0059   -0.0221
    8 F2    2py     0.3173   -0.6027   -0.0033   -0.0103
    9 F2    2py    -0.0451    0.0214   -0.0647   -0.0189
   10 F2    3d1-   -0.0286   -0.0247   -0.0000   -0.0009
--
 
      Von Neumann Entropy (Root  1) =  0.22894
 

      Mulliken population Analysis for root number:  1
      -----------------------------------------------
 
 
++    Molecular charges:
      ------------------
 
      Mulliken charges per centre and basis function type
      ---------------------------------------------------
 
             LI1     F2    
      1s     2.0185  4.0048
      2px    0.2151  1.7345
      2pz    0.4201  1.5989
      2py    0.2151  1.7345
      3d2+   0.0000  0.0000
      3d1+   0.0477  0.0028
      3d0   -0.0544  0.0119
      3d1-   0.0477  0.0028
      3d2-   0.0000  0.0000
      Total  2.9099  9.0901
 
      N-E    0.0901 -0.0901
 
      Total electronic charge=   12.000000
 
      Total            charge=   -0.000000
--
 
 

      Expectation values of various properties for root number:  1
      -----------------------------------------------------------
 
 
++    Molecular properties:
      ---------------------
 
      Charge (e):
                      =   -0.0000
      Dipole Moment (Debye):
      Origin of the operator (Ang)=    0.0000    0.0000    0.0000
                   X=  0.0000E+00               Y=  0.0000E+00               Z= -2.0974E+00           Total=  2.0974E+00
      Quadrupole Moment (Debye*Ang):
      Origin of the operator (Ang)=    0.0000    0.0000    0.5842
                  XX= -6.6643E+00              XY=  0.0000E+00              XZ=  0.0000E+00              YY= -6.6643E+00
                  YZ=  0.0000E+00              ZZ= -7.1527E+00
      In traceless form (Debye*Ang)
                  XX=  2.4416E-01              XY=  0.0000E+00              XZ=  0.0000E+00              YY=  2.4416E-01
                  YZ=  0.0000E+00              ZZ= -4.8831E-01
--
 
      Von Neumann Entropy (Root  2) =  1.05243
 

      Mulliken population Analysis for root number:  2
      -----------------------------------------------
 
 
++    Molecular charges:
      ------------------
 
      Mulliken charges per centre and basis function type
      ---------------------------------------------------
 
             LI1     F2    
      1s     2.8188  3.7313
      2px    0.1822  1.7726
      2pz    0.2101  1.2458
      2py    0.1822  1.7726
      3d2+   0.0000  0.0000
      3d1+   0.0422  0.0029
      3d0   -0.0201  0.0143
      3d1-   0.0422  0.0029
      3d2-   0.0000  0.0000
      Total  3.4577  8.5423
 
      N-E   -0.4577  0.4577
 
      Total electronic charge=   12.000000
 
      Total            charge=   -0.000000
--
 
 

      Expectation values of various properties for root number:  2
      -----------------------------------------------------------
 
 
++    Molecular properties:
      ---------------------
 
      Charge (e):
                      =   -0.0000
      Dipole Moment (Debye):
      Origin of the operator (Ang)=    0.0000    0.0000    0.0000
                   X=  0.0000E+00               Y=  0.0000E+00               Z=  2.8261E+00           Total=  2.8261E+00
      Quadrupole Moment (Debye*Ang):
      Origin of the operator (Ang)=    0.0000    0.0000    0.5842
                  XX= -1.3472E+01              XY=  0.0000E+00              XZ=  0.0000E+00              YY= -1.3472E+01
                  YZ=  0.0000E+00              ZZ= -1.5727E+01
      In traceless form (Debye*Ang)
                  XX=  1.1278E+00              XY=  0.0000E+00              XZ=  0.0000E+00              YY=  1.1278E+00
                  YZ=  0.0000E+00              ZZ= -2.2556E+00
--
 
 
  Input file to MOLDEN was generated!
 
 
  Input file to MOLDEN was generated!
 
 
  Input file to MOLDEN was generated!
 
      Average orbitals are written to the RASORB file
      Natural orbitals for root   1 are written to the RASORB.1 file
      Natural orbitals for root   2 are written to the RASORB.2 file
      Spin density orbitals for root   1 are written to the SPDORB.1 file
      Spin density orbitals for root   2 are written to the SPDORB.2 file
 
--- Stop Module: rasscf at Thu Nov  7 13:43:00 2019 /rc=_RC_ALL_IS_WELL_ ---
*** files: lif.rasscf.molden lif.rasscf.molden.1 lif.rasscf.molden.2 lif.RasOrb lif.RasOrb.1 lif.RasOrb.2 lif.rasscf.h5 lif.SpdOrb.1 lif.SpdOrb.2 xmldump
    saved to directory /scratch/molcas_jobs/lif
--- Module rasscf spent 1 second ---

>>> COPY lif.JobIph JOB001

*** symbolic link created: INPORB -> lif.RasOrb
--- Start Module: rassi at Thu Nov  7 13:43:00 2019 ---
 
()()()()()()()()()()()()()()()()()()()()()()()()()()()()()()()()()()()()()()()()()()()()()()()()()()

                                               &RASSI

                       only a single process is used, running in SERIAL mode
                       available to each process: 8.0 GB of memory, 1 thread
()()()()()()()()()()()()()()()()()()()()()()()()()()()()()()()()()()()()()()()()()()()()()()()()()()
 
 
      ********************************************************************************
      *                                                                              *
      *                             General data section                             *
      *                                                                              *
      ********************************************************************************
 
   Specific data for JOBIPH file 
 JOB001                                                                         
                                                  
   -------------------------------------
  IFEJOB= F
 
   Header from SEWARD:
                                                                               
        Integrals generated by seward 4.2.0  , Thu Nov  7 13:42:58 2019        
 
   CASSCF title (first line only):
       (No title given)                                                        
 
   STATE IRREP:                             1
   SPIN MULTIPLICITY:                       1
   ACTIVE ELECTRONS:                        6
   MAX RAS1 HOLES:                          0
   MAX RAS3 ELECTRONS:                      0
   NR OF CONFIG:                          142
  This wave function is of HISPIN type.
  However, the special handling for that case
  is suspected to be buggy. So the variable
  WFTYPE is set to GENERAL.
  Omega values will not be computed.
  Reason: Angular momentum integrals are missing.
 
 ###############################################################################
 ###############################################################################
 ###                                                                         ###
 ###                                                                         ###
 ###    Requested integrals are missing.                                     ###
 ###                                                                         ###
 ###                                                                         ###
 ###############################################################################
 ###############################################################################
  SO-Property name, and component:ANGMOM                       1
  This record cannot be found. Some of the requested
  properties cannot be computed. Suggested fix: Try
  recomputing one-electron integrals with keyword
  'OneOnly', and additional keywords for the
  properties needed.
  Also missing:ANGMOM                       2
  Also missing:ANGMOM                       3
 
   The following data are common to all the states:
   ------------------------------------------------
   (note: frozen counts as inactive, deleted as secondary)
 
      NR of irreps: 4
 
                 Total     No./Irrep 
      Irrep                  1   2   3   4
                            a1  b1  a2  b2
 
      INACTIVE       3       3   0   0   0
      ACTIVE         7       3   2   0   2
      SECONDARY     34      16   8   2   8
      BASIS         44      22  10   2  10
 
      RAS1           0       0   0   0   0
      RAS2           7       3   2   0   2
      RAS3           0       0   0   0   0
 
        MATRIX ELEMENTS WILL BE COMPUTED FOR THE FOLLOWING ONE-ELECTRON OPERATOR
 S, UNLESS ZERO BY SYMMETRY.
   (Herm=Hermitian, Anti=Antihermitian, Sing=Singlet operator, Trip=Triplet oper
 ator)
     MLTPL  1   1 (HERMSING)     MLTPL  1   2 (HERMSING)     MLTPL  1   3 (HERMSING)
     MLTPL  2   1 (HERMSING)     MLTPL  2   2 (HERMSING)     MLTPL  2   3 (HERMSING)
     MLTPL  2   4 (HERMSING)     MLTPL  2   5 (HERMSING)     MLTPL  2   6 (HERMSING)
     VELOCITY   1 (ANTISING)     VELOCITY   2 (ANTISING)     VELOCITY   3 (ANTISING)
 
       EIGENSTATES OF A SPIN-FREE HAMILTONIAN WILL BE COMPUTED BASED ON:
 
  A Hamiltonian matrix computed by RASSI.
  SO coupling elements will be added.
       EIGENSTATES OF SPIN-ORBIT HAMILTONIAN WILL BE COMPUTED
        MATRIX ELEMENTS OVER SPIN EIGENSTATES FOR:
     MLTPL  1   1 (HERMSING)     MLTPL  1   2 (HERMSING)     MLTPL  1   3 (HERMSING)
     MLTPL  2   1 (HERMSING)     MLTPL  2   2 (HERMSING)     MLTPL  2   3 (HERMSING)
     MLTPL  2   4 (HERMSING)     MLTPL  2   5 (HERMSING)     MLTPL  2   6 (HERMSING)
     VELOCITY   1 (ANTISING)     VELOCITY   2 (ANTISING)     VELOCITY   3 (ANTISING)
 
  Nr of states:                     2
 
   State:        1   2
  JobIph:        1   1
 Root nr:        1   2
 
  HAMILTONIAN MATRIX FOR THE ORIGINAL STATES:
 
  Diagonal, with energies
   -106.12104681   -105.95712346
 
      OVERLAP MATRIX FOR THE ORIGINAL STATES:
 
  Diagonal, with elements
      1.00000000      1.00000000
 
::    RASSI State    1     Total energy:   -106.12104681
::    RASSI State    2     Total energy:   -105.95712346
 
 
 
      ****************************************************************************************************
      *                                                                                                  *
      *                                         Spin-free section                                        *
      *                                                                                                  *
      ****************************************************************************************************
 
 
 
  SPIN-FREE ENERGIES:
 
 SF State    Relative EVAC(au)   Rel lowest level(eV)      D:o, cm**(-1)
 
     1            -106.12104681            0.000000               0.000
     2            -105.95712346            4.460582           35977.017
 
++ Dipole transition strengths (spin-free states):
   -----------------------------------------------
     for osc. strength at least  1.00000000E-05
 
      From   To        Osc. strength     Einstein coefficients Ax, Ay, Az (sec-1)    Total A (sec-1)
     -----------------------------------------------------------------------------------------------
         1    2       9.15501480E-02  0.00000000E+00  0.00000000E+00  7.90405694E+07  7.90405694E+07
     -----------------------------------------------------------------------------------------------
--
 
++ Velocity transition strengths (spin-free states):
   -------------------------------------------------
     for osc. strength at least  1.00000000E-05
 
      From   To        Osc. strength     Einstein coefficients Ax, Ay, Az (sec-1)    Total A (sec-1)
     -----------------------------------------------------------------------------------------------
         1    2       5.62666075E-02  0.00000000E+00  0.00000000E+00  4.85782360E+07  4.85782360E+07
     -----------------------------------------------------------------------------------------------
--
 --------------------------------------------------
 
 A comparison between the dipole oscillator strengths in 
 length and velocity gauge will be performed
 
 All dipole oscillator differences above the tolerance of 
  0.100000000000000       will be printed 
 
 Due to basis set deficiency these oscillator may be problematic 
 
 The tolerance is defined as ABS(1-O_l/O_v) 
 O_l : dipole oscillator strength in length gauge
 O_p : dipole oscillator strength in velocity gauge
 
 --------------------------------------------------
 
  Problematic transitions have been found
 
  From  To  Percent difference  Osc. strength (lenght)  Osc. strength (velocity)
  
 
  ---------------------------------------
 
         1    2       6.27077800E+01  9.15501480E-02  5.62666075E-02
 
 Number of problematic transitions =                      1
 
 
 
      ****************************************************************************************************
      *                                                                                                  *
      *                                    Special properties section                                    *
      *                                                                                                  *
      ****************************************************************************************************
 
 
 ###############################################################################
 ###############################################################################
 ###                                                                         ###
 ###                                                                         ###
 ###    RunFile label nBas                                                   ###
 ###    was used       85 times                                              ###
 ###                                                                         ###
 ###                                                                         ###
 ###############################################################################
 ###############################################################################
--- Stop Module: rassi at Thu Nov  7 13:43:01 2019 /rc=_RC_ALL_IS_WELL_ ---
*** files: lif.rassi.h5 xmldump
    saved to directory /scratch/molcas_jobs/lif

>>> RM JOB001

*** symbolic link created: INPORB -> lif.RasOrb
--- Start Module: alaska at Thu Nov  7 13:43:01 2019 ---
 
()()()()()()()()()()()()()()()()()()()()()()()()()()()()()()()()()()()()()()()()()()()()()()()()()()

                                              &ALASKA

                       only a single process is used, running in SERIAL mode
                       available to each process: 8.0 GB of memory, 1 thread
()()()()()()()()()()()()()()()()()()()()()()()()()()()()()()()()()()()()()()()()()()()()()()()()()()
 
[ process      0]: xquit (rc =     65): _INVOKED_OTHER_MODULE_
--- Stop Module: alaska at Thu Nov  7 13:43:01 2019 /rc=_RC_INVOKED_OTHER_MODULE_ ---
*** files: xmldump
    saved to directory /scratch/molcas_jobs/lif

*** symbolic link created: INPORB -> lif.RasOrb
--- Start Module: mclr at Thu Nov  7 13:43:01 2019 ---
 
()()()()()()()()()()()()()()()()()()()()()()()()()()()()()()()()()()()()()()()()()()()()()()()()()()

                                               &MCLR

                       only a single process is used, running in SERIAL mode
                       available to each process: 8.0 GB of memory, 1 thread
()()()()()()()()()()()()()()()()()()()()()()()()()()()()()()()()()()()()()()()()()()()()()()()()()()
 
 Ordinary integral handling
 No .RLXPT2  or MCKINT  , I hope that is OK
 Seward mode is assumed, reading perturbation from ONEINT  
 OrdInt status: non-squared
 
++   Wave function specifications:
     -----------------------------
 
     Number of closed shell electrons              6
     Number of electrons in active shells          6
     Max number of holes in RAS1 space             0
     Max number of electrons in RAS3 space         0
     Number of inactive orbitals                   3
     Number of active orbitals                     7
     Number of secondary orbitals                 34
     Spin quantum number                         0.0
     State symmetry                                1
     Number of roots                               2
     States considered                             1     2
     Weights                                   0.500 0.500
 
     Symmetry species                              1     2     3     4
     Skiped sym. species                           0     0     0     0
     Frozen orbitals                               0     0     0     0
     Inactive orbitals                             3     0     0     0
     Active orbitals                               3     2     0     2
     RAS1 orbitals                                 0     0     0     0
     RAS2 orbitals                                 3     2     0     2
     RAS3 orbitals                                 0     0     0     0
     Deleted orbitals                              0     0     0     0
     Number of basis functions                    22    10     2    10
     Number of Orbitals                           22    10     2    10
     Number of configurations                      142     118     112     118
     Number of combinations                      178   152   148   152
     Natural orbitals are used in the last CI
     RASSCF state energy =           -106.1210468106
     Size of explicit Hamiltonian in PCG:        100
--
 
     Convergence threshold=               1.0000E-04
     Max number of iterations in PCG:            200
     Lagrangian multipliers are calculated for states no.   1/  2
 
 
        Iteration       Delta       Res(kappa)  Res(CI)     DeltaK      DeltaC
            1          0.1382692   0.0225492   0.0360221   0.0008332   0.0001676
            2          0.0466017   0.0398791   0.0155535   0.0000797   0.0002576
            3          0.0131355   0.0145103   0.0105147   0.0000425   0.0000526
            4          0.0021848   0.0069430   0.0034135   0.0000063   0.0000096
            5          0.0012069   0.0043115   0.0029640   0.0000040   0.0000048
            6          0.0002778   0.0022192   0.0017152   0.0000013   0.0000007
            7          0.0000414   0.0010711   0.0006238   0.0000001   0.0000002
            8          0.0000101   0.0005562   0.0002933   0.0000000   0.0000000
            9          0.0000016   0.0001737   0.0001409   0.0000000   0.0000000
      Perturbation no:    1 converged in    9 steps.
 
 
      The response parameters are written to the file RESP.
--- Stop Module: mclr at Thu Nov  7 13:43:01 2019 /rc=_RC_ALL_IS_WELL_ ---
*** files: xmldump
    saved to directory /scratch/molcas_jobs/lif

*** symbolic link created: INPORB -> lif.RasOrb
--- Start Module: alaska at Thu Nov  7 13:43:01 2019 ---
 
()()()()()()()()()()()()()()()()()()()()()()()()()()()()()()()()()()()()()()()()()()()()()()()()()()

                                              &ALASKA

                       only a single process is used, running in SERIAL mode
                       available to each process: 8.0 GB of memory, 1 thread
()()()()()()()()()()()()()()()()()()()()()()()()()()()()()()()()()()()()()()()()()()()()()()()()()()
 
 
                     Threshold for contributions to the gradient: .100E-06
 
 
                    ********************************************
                    * Symmetry Adapted Cartesian Displacements *
                    ********************************************
 
 
           Irreducible representation : a1 
           Basis function(s) of irrep: z                                                                               
 
 Basis Label        Type   Center Phase
   1   LI1          z         1     1
   2   F2           z         2     1
 
           Irreducible representation : b1 
           Basis function(s) of irrep: x, xz, Ry                                                                       
 
 Basis Label        Type   Center Phase
   3   LI1          x         1     1
   4   F2           x         2     1
 
           Irreducible representation : b2 
           Basis function(s) of irrep: y, yz, Rx                                                                       
 
 Basis Label        Type   Center Phase
   5   LI1          y         1     1
   6   F2           y         2     1
 
                     No automatic utilization of translational and rotational invariance of the energy is employed.
 
 Skipping Nuclear Charge Contribution
 Conventional ERI gradients!
 
 Wavefunction type: State average CASSCF
 
 
 *****************************************************
 *                                                   *
 *              CI derivative coupling               *
 *                                                   *
 *****************************************************
 
  Irreducible representation: a1 
 ---------------------------------------------------------
                     X             Y             Z        
 ---------------------------------------------------------
  LI1               0.00000000    0.00000000   -0.26367852
  F2                0.00000000    0.00000000    0.26367852
 ---------------------------------------------------
 
 
 ******************************************************
 *                                                    *
 *              CSF derivative coupling               *
 *                                                    *
 ******************************************************
 
  Irreducible representation: a1 
 ---------------------------------------------------------
                     X             Y             Z        
 ---------------------------------------------------------
  LI1               0.00000000    0.00000000    0.11098272
  F2                0.00000000    0.00000000    0.00664005
 ---------------------------------------------------
 
               Energy difference:  1.639233E-01
 
 *******************************************************
 *                                                     *
 *              Total derivative coupling              *
 *                                                     *
 *******************************************************
 
  Irreducible representation: a1 
 ---------------------------------------------------------
                     X             Y             Z        
 ---------------------------------------------------------
  LI1               0.00000000    0.00000000   -1.49756497
  F2                0.00000000    0.00000000    1.61518774
 ---------------------------------------------------
 
               norm:       2.2026
---------------------------------------------------------------------------------------------
  Nr.	 Label		Type		Offset		Length	   Atime	  Address
---------------------------------------------------------------------------------------------
  1	DENS        	REAL	       4331204	        2928          32	[0x5207780]
---------------------------------------------------------------------------------------------
Maximal available memory for Molcas = 7999997072
MEMORY WARNING: some memory allocations are not released!
--- Stop Module: alaska at Thu Nov  7 13:43:02 2019 /rc=_RC_ALL_IS_WELL_ ---
*** files: xmldump
    saved to directory /scratch/molcas_jobs/lif

>>> COPY lif.RasOrb /scratch/molcas_jobs/lif/backup/07_foreach/lif.0.RasOrb

>>> COPY lif.rasscf.molden /scratch/molcas_jobs/lif/backup/07_foreach/lif.rasscf.0.molden

>>> COPY lif.JobIph /scratch/molcas_jobs/lif/backup/07_foreach/lif.0.JobIph

>>> COPY lif.rassi.h5 /scratch/molcas_jobs/lif/backup/07_foreach/lif.rassi.0.h5

>>> END FOREACH

>>> EXPORT STEP = 1

>>> EVAL DIST = 0.8+(1*0.1) = 0.9

*** symbolic link created: INPORB -> lif.RasOrb
--- Start Module: gateway at Thu Nov  7 13:43:02 2019 ---
 
()()()()()()()()()()()()()()()()()()()()()()()()()()()()()()()()()()()()()()()()()()()()()()()()()()

                                              &GATEWAY

                       only a single process is used, running in SERIAL mode
                       available to each process: 8.0 GB of memory, 1 thread
()()()()()()()()()()()()()()()()()()()()()()()()()()()()()()()()()()()()()()()()()()()()()()()()()()
 
      Found SYMMETRY generators: xy y
 
++    Symmetry information:
      ---------------------
 
                    --- Group Generators ---
                    Rotation around the z-axis  
                    Reflection in the xz-plane  
 
                    Character Table for C2v
 
                             E   C2(z) s(xz) s(yz)
                    a1       1     1     1     1  z
                    b1       1    -1     1    -1  x, xz, Ry
                    a2       1     1    -1    -1  xy, Rz, I
                    b2       1    -1    -1     1  y, yz, Rx
--
 
 
++    Basis set information:
      ----------------------
 
 
      Basis set label: LI.POPSLIF.........
 
      Electronic valence basis set:
      ------------------
      Associated Effective Charge  3.000000 au
      Associated Actual Charge     3.000000 au
      Nuclear Model: Point charge
 
      Shell  nPrim  nBasis  Cartesian Spherical Contaminant
         s      12       5        X                  
         p       6       4        X                  
         d       1       1                 X         
 
 
      Basis set label: F.POPSLIF.........
 
      Electronic valence basis set:
      ------------------
      Associated Effective Charge  9.000000 au
      Associated Actual Charge     9.000000 au
      Nuclear Model: Point charge
 
      Shell  nPrim  nBasis  Cartesian Spherical Contaminant
         s      12       5        X                  
         p       6       4        X                  
         d       1       1                 X         
--
 
 
++    Molecular structure info:
      -------------------------
 
                    ************************************************ 
                    **** Cartesian Coordinates / Bohr, Angstrom **** 
                    ************************************************ 
 
     Center  Label                x              y              z                     x              y              z
        1      LI1              0.000000       0.000000       0.000000              0.000000       0.000000       0.000000
        2      F2               0.000000       0.000000       1.700754              0.000000       0.000000       0.900000
--
 
 
            Nuclear Potential Energy             15.87531632 au
 
--- Stop Module: gateway at Thu Nov  7 13:43:02 2019 /rc=_RC_ALL_IS_WELL_ ---
*** files: xmldump
    saved to directory /scratch/molcas_jobs/lif

*** symbolic link created: INPORB -> lif.RasOrb
--- Start Module: seward at Thu Nov  7 13:43:02 2019 ---
 
()()()()()()()()()()()()()()()()()()()()()()()()()()()()()()()()()()()()()()()()()()()()()()()()()()

                                              &SEWARD

                       only a single process is used, running in SERIAL mode
                       available to each process: 8.0 GB of memory, 1 thread
()()()()()()()()()()()()()()()()()()()()()()()()()()()()()()()()()()()()()()()()()()()()()()()()()()
 
               SEWARD will generate:
                  Multipole Moment integrals up to order  2
                  Kinetic Energy integrals
                  Nuclear Attraction integrals (point charge)
                  One-Electron Hamiltonian integrals
                  Velocity integrals
                  Two-Electron Repulsion integrals
 
                   Integrals are discarded if absolute value <: 0.10E-13
                   Integral cutoff threshold is set to       <: 0.10E-15
 
                    Unitary symmetry adaptation
 
 
            Nuclear Potential Energy             15.87531632 au
 
 
      Basis set specifications :
      Symmetry species         a1   b1   a2   b2 
      Basis functions           22   10    2   10
 
 
  Input file to MOLDEN was generated!
 
--- Stop Module: seward at Thu Nov  7 13:43:03 2019 /rc=_RC_ALL_IS_WELL_ ---
*** files: lif.GssOrb lif.guessorb.h5 lif.guessorb.molden xmldump
    saved to directory /scratch/molcas_jobs/lif

*** symbolic link created: INPORB -> lif.RasOrb
--- Start Module: rasscf at Thu Nov  7 13:43:03 2019 ---
 
()()()()()()()()()()()()()()()()()()()()()()()()()()()()()()()()()()()()()()()()()()()()()()()()()()

                                              &RASSCF

                       only a single process is used, running in SERIAL mode
                       available to each process: 8.0 GB of memory, 1 thread
()()()()()()()()()()()()()()()()()()()()()()()()()()()()()()()()()()()()()()()()()()()()()()()()()()
 
 
      Header of the ONEINT file:
      --------------------------
      
      Integrals generated by seward 4.2.0  , Thu Nov  7 13:43:02 2019
 
 
      OrdInt status: non-squared
 
 
      Cartesian coordinates in Angstrom:
      -----------------------------------------------------
      No.  Label        X            Y            Z        
      -----------------------------------------------------
       1   LI1        0.00000000   0.00000000   0.00000000
       2   F2         0.00000000   0.00000000   0.90000000
      -----------------------------------------------------
      Nuclear repulsion energy =   15.87531632
 
++    Wave function specifications:
      -----------------------------
 
      Number of closed shell electrons           6
      Number of electrons in active shells       6
      Max number of holes in RAS1 space          0
      Max nr of electrons in RAS3 space          0
      Number of inactive orbitals                3
      Number of active orbitals                  7
      Number of secondary orbitals              34
      Spin quantum number                      0.0
      State symmetry                             1
--
 
++    Orbital specifications:
      -----------------------
 
      Symmetry species                           1   2   3   4
                                                a1  b1  a2  b2
      Frozen orbitals                            0   0   0   0
      Inactive orbitals                          3   0   0   0
      Active orbitals                            3   2   0   2
      RAS1 orbitals                              0   0   0   0
      RAS2 orbitals                              3   2   0   2
      RAS3 orbitals                              0   0   0   0
      Secondary orbitals                        16   8   2   8
      Deleted orbitals                           0   0   0   0
      Number of basis functions                 22  10   2  10
--
 
++    CI expansion specifications:
      ----------------------------
 
      Number of CSFs                           142
      Number of determinants                   178
      Number of root(s) required                 2
      Root chosen for geometry opt.              2
      CI roots used                              1     2
      weights                                0.500 0.500
      highest root included in the CI            2
      max. size of the explicit Hamiltonian    142
--
 
++    Optimization specifications:
      ----------------------------
 
      RASSCF algorithm: Conventional
      Maximum number of macro iterations       200
      Maximum number of SX iterations          100
      Threshold for RASSCF energy            0.100E-07
      Threshold for max MO rotation          0.100E+00
      Threshold for max BLB element          0.100E-03
      Level shift parameter                  0.500E+00
      Make Quasi-Newton update
--
 
      The MO-coefficients are taken from the file:
      /scratch/molcas_jobs/lif/lif.RasOrb                                                                                             
      Title: RASSCF average (pseudo-natural) orbitals                                      
 
      Total molecular charge    0.00
 
      ************************************************************************************************************************
      *                                                                                                                      *
      *                                            Wave function control section                                             *
      *                                                                                                                      *
      ************************************************************************************************************************
 
 
                                         RASSCF iterations: Energy and convergence statistics
                                         ----------------------------------------------------
 
      Iter CI   SX   CI       RASSCF       Energy    max ROT     max BLB   max BLB  Level Ln srch  Step   QN   Walltime
          iter iter root      energy       change     param      element    value   shift minimum  type update hh:mm:ss
 Nr of preliminary CI iterations:   1
        1   1   31    0  -106.37931379    0.00E+00   0.30E-01    2  20 1  0.14E+00*  0.26   0.00    SX    NO    0:00:00
        2   1   11    0  -106.39613095   -0.17E-01* -0.33E-01    3   5 1 -0.20E-01*  0.25   0.00    SX    NO    0:00:00
        3   1   10    0  -106.39736096   -0.12E-02* -0.19E-01    3   4 1  0.65E-02*  0.25   0.00    SX    NO    0:00:00
        4   1    9    0  -106.39762904   -0.27E-03* -0.96E-02    3   4 1  0.38E-02*  0.25   0.00    SX    NO    0:00:00
        5   1    9    0  -106.39770871   -0.80E-04* -0.11E-01    3   4 1  0.22E-02*  0.25   2.24    LS   YES    0:00:00
        6   1    8    0  -106.39774624   -0.38E-04*  0.26E-02    2  17 1  0.58E-03*  0.25   1.11    QN   YES    0:00:00
        7   1    8    0  -106.39774962   -0.34E-05*  0.20E-02    1   6 2  0.26E-03*  0.25   1.80    LS   YES    0:00:00
        8   1    8    0  -106.39775037   -0.74E-06* -0.12E-02    3  17 1 -0.35E-03*  0.25   0.94    QN   YES    0:00:00
        9   1    7    0  -106.39775107   -0.70E-06* -0.92E-03    2  17 1 -0.14E-03*  0.25   1.80    LS   YES    0:00:00
       10   1    7    0  -106.39775124   -0.17E-06*  0.40E-03    3   5 1 -0.12E-03*  0.25   1.00    QN   YES    0:00:00
       11   1    7    0  -106.39775138   -0.14E-06*  0.53E-03    3  17 1  0.69E-04   0.25   2.35    LS   YES    0:00:00
       12   1    7    0  -106.39775145   -0.71E-07* -0.28E-03    3   5 1  0.91E-04   0.25   1.00    QN   YES    0:00:00
       13   1    6    0  -106.39775151   -0.53E-07* -0.31E-03    3   5 1  0.65E-04   0.25   2.14    LS   YES    0:00:00
       14   1    6    0  -106.39775153   -0.20E-07* -0.13E-03    3  17 1 -0.64E-04   0.25   0.97    QN   YES    0:00:00
       15   1    6    0  -106.39775154   -0.18E-07* -0.13E-03    3  17 1 -0.24E-04   0.25   1.57    QN   YES    0:00:00
       16   1    5    0  -106.39775155   -0.70E-08  -0.71E-04    3   5 1 -0.15E-04   0.25   1.37    QN   YES    0:00:00
      Convergence after 16 iterations
       17   1    5    0  -106.39775155   -0.18E-08  -0.71E-04    3  17 1  0.98E-05   0.25   1.37    QN   YES    0:00:00
 
      ************************************************************************************************************************
                                                      Wave function printout:
                       occupation of active orbitals, and spin coupling of open shells (u,d: Spin up or down)
      ************************************************************************************************************************
 
      Note: transformation to natural orbitals
      has been made, which may change the order of the CSFs.
 
      printout of CI-coefficients larger than  0.05 for root  1
      energy=    -106.504809
      conf/sym  111 22 44     Coeff  Weight
            45  200 20 20  -0.97462 0.94989
            46  200 ud 20   0.06367 0.00405
            47  200 02 20   0.05160 0.00266
            48  200 20 ud   0.06367 0.00405
            49  200 ud ud   0.06528 0.00426
            52  200 20 02   0.05160 0.00266
            57  ud0 20 20  -0.05642 0.00318
            58  ud0 ud 20  -0.06092 0.00371
            60  ud0 20 ud  -0.06092 0.00371
            81  u0d 20 20  -0.13246 0.01755
 
      printout of CI-coefficients larger than  0.05 for root  2
      energy=    -106.290694
      conf/sym  111 22 44     Coeff  Weight
            45  200 20 20   0.13097 0.01715
            81  u0d 20 20  -0.97687 0.95427
            82  u0d ud 20  -0.06296 0.00396
            84  u0d 20 ud  -0.06296 0.00396
            85  u0d ud ud   0.06397 0.00409
            93  0ud 20 20   0.06887 0.00474
 
      Natural orbitals and occupation numbers for root  1
      sym 1:   1.984231   0.015485   0.000183
      sym 2:   1.983729   0.016321
      sym 4:   1.983729   0.016321
 
      Natural orbitals and occupation numbers for root  2
      sym 1:   1.179014   0.004437   0.816804
      sym 2:   1.985563   0.014310
      sym 4:   1.985563   0.014310
 
      ************************************************************************************************************************
      *                                                                                                                      *
      *                                                    Final results                                                     *
      *                                                                                                                      *
      ************************************************************************************************************************
 
 
++    Wave function specifications:
      -----------------------------
 
      Number of closed shell electrons           6
      Number of electrons in active shells       6
      Max number of holes in RAS1 space          0
      Max nr of electrons in RAS3 space          0
      Number of inactive orbitals                3
      Number of active orbitals                  7
      Number of secondary orbitals              34
      Spin quantum number                      0.0
      State symmetry                             1
--
 
++    Orbital specifications:
      -----------------------
 
      Symmetry species                           1   2   3   4
                                                a1  b1  a2  b2
      Frozen orbitals                            0   0   0   0
      Inactive orbitals                          3   0   0   0
      Active orbitals                            3   2   0   2
      RAS1 orbitals                              0   0   0   0
      RAS2 orbitals                              3   2   0   2
      RAS3 orbitals                              0   0   0   0
      Secondary orbitals                        16   8   2   8
      Deleted orbitals                           0   0   0   0
      Number of basis functions                 22  10   2  10
--
 
++    CI expansion specifications:
      ----------------------------
 
      Number of CSFs                           142
      Number of determinants                   178
      Number of root(s) required                 2
      CI roots used                              1     2
      weights                                0.500 0.500
      highest root included in the CI            2
      Root passed to geometry opt.               2
--
 
++    Final optimization conditions:
      ------------------------------
 
      Average CI energy                            -106.39775155
      RASSCF energy for state  2                   -106.29069406
      Super-CI energy                                -0.00000000
      RASSCF energy change                           -0.00000000
      Max change in MO coefficients              -0.311E-03
      Max non-diagonal density matrix element    -0.713E-04
      Maximum BLB matrix element                  0.977E-05
      (orbital pair   3,  17 in symmetry   1)
      Norm of electronic gradient            0.179E+00
--
 
 
      Final state energy(ies):
      ------------------------
 
::    RASSCF root number  1 Total energy:   -106.50480905
::    RASSCF root number  2 Total energy:   -106.29069406
 
++    Molecular orbitals:
      -------------------
 
      Pseudonatural active orbitals and approximate occupation numbers
 
 
 
 
      Molecular orbitals for symmetry species 1: a1 
 
 
      Orbital            1         2         3         4         5         6         7         8         9        10
      Energy      -26.3621   -2.6912   -1.5337    0.0000    0.0000    0.0000    0.0168    0.0214    0.0856    0.1416
      Occ. No.      2.0000    2.0000    2.0000    1.4876    0.0126    0.4999    0.0000    0.0000    0.0000    0.0000
 
    1 LI1   1s      0.0000    0.5721   -0.2230    0.1663   -0.0461   -0.0808    0.0072   -0.0114    0.0076   -0.0567
    2 LI1   1s     -0.0000    0.3763   -0.2396    0.2613    0.1416   -0.1563    0.0114   -0.0250    0.0337   -0.0890
    3 LI1   1s     -0.0001    0.0024    0.0098   -0.0171   -0.0470    0.0067    0.9838   -1.3730   -0.6391    0.9143
    4 LI1   1s      0.0004   -0.0092   -0.0449    0.0496    0.0839    0.4275   -0.8141    1.2184    1.8453   -3.1061
    5 LI1   1s     -0.0017    0.0325    0.1557   -0.1984   -0.6083    0.6515    0.4722   -0.4016   -1.8458    3.7163
    6 LI1   2pz     0.0001    0.0285    0.0645   -0.3329   -0.9262   -0.0670    0.0229   -0.0018    0.1994    0.0726
    7 LI1   2pz    -0.0005    0.0052    0.0399   -0.0628   -0.1856   -0.1105    0.2451    0.0447   -0.4676   -0.0079
    8 LI1   2pz     0.0001    0.0027   -0.0023    0.0100    0.0418   -0.0764   -0.3384   -0.3338    1.6031    0.7519
    9 LI1   2pz    -0.0000   -0.0010   -0.0002   -0.0002   -0.0018    0.0035    0.9672    0.7605   -0.6829   -0.2970
   10 LI1   3d0     0.0000    0.0112    0.0181   -0.0908   -0.2045   -0.0105    0.0011    0.0104    0.0142   -0.0343
   11 LI1   3d2+    0.0000   -0.0000   -0.0000    0.0000   -0.0000    0.0000    0.0000    0.0000    0.0000    0.0000
   12 F2    1s      0.5474   -0.0379   -0.1240    0.0131   -0.0014    0.0100    0.0006    0.0011    0.0050    0.0041
   13 F2    1s      0.4735   -0.0628   -0.2100    0.0242    0.0020    0.0175    0.0012    0.0018    0.0085    0.0082
   14 F2    1s      0.0023   -0.0311   -0.1687    0.2089    0.6759   -0.0858   -0.3291    0.1167    0.7085   -1.5000
   15 F2    1s     -0.0016    0.0460    0.5052    0.2008    0.4432   -0.0852    0.0294   -0.0407   -0.2604    0.0881
   16 F2    1s      0.0070    0.1772    0.6312   -0.1009    0.0650   -0.0638   -0.0091   -0.0049   -0.0193   -0.0482
   17 F2    2pz    -0.0004   -0.0422    0.0226    0.3301   -0.5244   -0.0128    0.0024    0.0031    0.0127    0.0072
   18 F2    2pz    -0.0001   -0.0708    0.0095    0.5239   -0.3655   -0.0122    0.0061    0.0046    0.0206    0.0257
   19 F2    2pz     0.0001    0.0041    0.0064    0.3427    0.7049   -0.0385   -0.0111    0.0038    0.0901   -0.0006
   20 F2    2pz    -0.0003   -0.0041    0.0197    0.1051    0.3554   -0.0876    0.0234   -0.1315   -0.6229    0.2470
   21 F2    3d0     0.0001    0.0203    0.0029   -0.0120   -0.0052   -0.0072    0.0003   -0.0022   -0.0061   -0.0109
   22 F2    3d2+    0.0000   -0.0000   -0.0000    0.0000   -0.0000    0.0000    0.0000    0.0000    0.0000    0.0000
 
 
 
      Molecular orbitals for symmetry species 2: b1 
 
 
      Orbital            1         2         3         4
      Energy        0.0000    0.0000    0.0173    0.0845
      Occ. No.      1.9820    0.0180    0.0000    0.0000
 
    1 LI1   2px     0.1249   -0.2860   -0.0170    0.0278
    2 LI1   2px     0.0317   -0.0802    0.1098    0.6580
    3 LI1   2px     0.0041    0.0049   -0.3468   -1.8598
    4 LI1   2px    -0.0022    0.0004    1.1828    0.8224
    5 LI1   3d1+    0.0430   -0.0885    0.0041    0.0528
    6 F2    2px     0.3037    0.5188    0.0035   -0.0147
    7 F2    2px     0.4694    0.4028    0.0058   -0.0215
    8 F2    2px     0.3492   -0.6085   -0.0020   -0.0121
    9 F2    2px    -0.0170   -0.0396   -0.0607    0.0468
   10 F2    3d1+   -0.0212   -0.0047    0.0001   -0.0014
 
 
 
      Molecular orbitals for symmetry species 4: b2 
 
 
      Orbital            1         2         3         4
      Energy        0.0000    0.0000    0.0173    0.0845
      Occ. No.      1.9820    0.0180    0.0000    0.0000
 
    1 LI1   2py     0.1249   -0.2860   -0.0170    0.0278
    2 LI1   2py     0.0317   -0.0802    0.1098    0.6580
    3 LI1   2py     0.0041    0.0049   -0.3468   -1.8598
    4 LI1   2py    -0.0022    0.0004    1.1828    0.8224
    5 LI1   3d1-    0.0430   -0.0885    0.0041    0.0528
    6 F2    2py     0.3037    0.5188    0.0035   -0.0147
    7 F2    2py     0.4694    0.4028    0.0058   -0.0215
    8 F2    2py     0.3492   -0.6085   -0.0020   -0.0121
    9 F2    2py    -0.0170   -0.0396   -0.0607    0.0468
   10 F2    3d1-   -0.0212   -0.0047    0.0001   -0.0014
--
 
      Von Neumann Entropy (Root  1) =  0.20346
 

      Mulliken population Analysis for root number:  1
      -----------------------------------------------
 
 
++    Molecular charges:
      ------------------
 
      Mulliken charges per centre and basis function type
      ---------------------------------------------------
 
             LI1     F2    
      1s     2.0373  3.9280
      2px    0.1694  1.7878
      2pz    0.2944  1.7755
      2py    0.1694  1.7878
      3d2+   0.0000  0.0000
      3d1+   0.0413  0.0016
      3d0   -0.0410  0.0057
      3d1-   0.0413  0.0016
      3d2-   0.0000  0.0000
      Total  2.7119  9.2881
 
      N-E    0.2881 -0.2881
 
      Total electronic charge=   12.000000
 
      Total            charge=   -0.000000
--
 
 

      Expectation values of various properties for root number:  1
      -----------------------------------------------------------
 
 
++    Molecular properties:
      ---------------------
 
      Charge (e):
                      =   -0.0000
      Dipole Moment (Debye):
      Origin of the operator (Ang)=    0.0000    0.0000    0.0000
                   X=  0.0000E+00               Y=  0.0000E+00               Z= -3.3899E+00           Total=  3.3899E+00
      Quadrupole Moment (Debye*Ang):
      Origin of the operator (Ang)=    0.0000    0.0000    0.6573
                  XX= -6.5076E+00              XY=  0.0000E+00              XZ=  0.0000E+00              YY= -6.5076E+00
                  YZ=  0.0000E+00              ZZ= -5.5183E+00
      In traceless form (Debye*Ang)
                  XX= -4.9463E-01              XY=  0.0000E+00              XZ=  0.0000E+00              YY= -4.9463E-01
                  YZ=  0.0000E+00              ZZ=  9.8926E-01
--
 
      Von Neumann Entropy (Root  2) =  1.11937
 

      Mulliken population Analysis for root number:  2
      -----------------------------------------------
 
 
++    Molecular charges:
      ------------------
 
      Mulliken charges per centre and basis function type
      ---------------------------------------------------
 
             LI1     F2    
      1s     2.9439  3.7507
      2px    0.1314  1.8330
      2pz    0.2245  1.0802
      2py    0.1314  1.8330
      3d2+   0.0000  0.0000
      3d1+   0.0338  0.0016
      3d0   -0.0060  0.0070
      3d1-   0.0338  0.0016
      3d2-   0.0000  0.0000
      Total  3.4929  8.5071
 
      N-E   -0.4929  0.4929
 
      Total electronic charge=   12.000000
 
      Total            charge=   -0.000000
--
 
 

      Expectation values of various properties for root number:  2
      -----------------------------------------------------------
 
 
++    Molecular properties:
      ---------------------
 
      Charge (e):
                      =   -0.0000
      Dipole Moment (Debye):
      Origin of the operator (Ang)=    0.0000    0.0000    0.0000
                   X=  0.0000E+00               Y=  0.0000E+00               Z=  3.5515E+00           Total=  3.5515E+00
      Quadrupole Moment (Debye*Ang):
      Origin of the operator (Ang)=    0.0000    0.0000    0.6573
                  XX= -1.3674E+01              XY=  0.0000E+00              XZ=  0.0000E+00              YY= -1.3674E+01
                  YZ=  0.0000E+00              ZZ= -1.6720E+01
      In traceless form (Debye*Ang)
                  XX=  1.5232E+00              XY=  0.0000E+00              XZ=  0.0000E+00              YY=  1.5232E+00
                  YZ=  0.0000E+00              ZZ= -3.0463E+00
--
 
 
  Input file to MOLDEN was generated!
 
 
  Input file to MOLDEN was generated!
 
 
  Input file to MOLDEN was generated!
 
      Average orbitals are written to the RASORB file
      Natural orbitals for root   1 are written to the RASORB.1 file
      Natural orbitals for root   2 are written to the RASORB.2 file
      Spin density orbitals for root   1 are written to the SPDORB.1 file
      Spin density orbitals for root   2 are written to the SPDORB.2 file
 
--- Stop Module: rasscf at Thu Nov  7 13:43:04 2019 /rc=_RC_ALL_IS_WELL_ ---
*** files: lif.rasscf.molden lif.rasscf.molden.1 lif.rasscf.molden.2 lif.RasOrb lif.RasOrb.1 lif.RasOrb.2 lif.rasscf.h5 lif.SpdOrb.1 lif.SpdOrb.2 xmldump
    saved to directory /scratch/molcas_jobs/lif
--- Module rasscf spent 1 second ---

>>> COPY lif.JobIph JOB001

*** symbolic link created: INPORB -> lif.RasOrb
--- Start Module: rassi at Thu Nov  7 13:43:04 2019 ---
 
()()()()()()()()()()()()()()()()()()()()()()()()()()()()()()()()()()()()()()()()()()()()()()()()()()

                                               &RASSI

                       only a single process is used, running in SERIAL mode
                       available to each process: 8.0 GB of memory, 1 thread
()()()()()()()()()()()()()()()()()()()()()()()()()()()()()()()()()()()()()()()()()()()()()()()()()()
 
 
      ********************************************************************************
      *                                                                              *
      *                             General data section                             *
      *                                                                              *
      ********************************************************************************
 
   Specific data for JOBIPH file 
 JOB001                                                                         
                                                  
   -------------------------------------
  IFEJOB= F
 
   Header from SEWARD:
                                                                               
        Integrals generated by seward 4.2.0  , Thu Nov  7 13:43:02 2019        
 
   CASSCF title (first line only):
       (No title given)                                                        
 
   STATE IRREP:                             1
   SPIN MULTIPLICITY:                       1
   ACTIVE ELECTRONS:                        6
   MAX RAS1 HOLES:                          0
   MAX RAS3 ELECTRONS:                      0
   NR OF CONFIG:                          142
  This wave function is of HISPIN type.
  However, the special handling for that case
  is suspected to be buggy. So the variable
  WFTYPE is set to GENERAL.
  Omega values will not be computed.
  Reason: Angular momentum integrals are missing.
 
 ###############################################################################
 ###############################################################################
 ###                                                                         ###
 ###                                                                         ###
 ###    Requested integrals are missing.                                     ###
 ###                                                                         ###
 ###                                                                         ###
 ###############################################################################
 ###############################################################################
  SO-Property name, and component:ANGMOM                       1
  This record cannot be found. Some of the requested
  properties cannot be computed. Suggested fix: Try
  recomputing one-electron integrals with keyword
  'OneOnly', and additional keywords for the
  properties needed.
  Also missing:ANGMOM                       2
  Also missing:ANGMOM                       3
 
   The following data are common to all the states:
   ------------------------------------------------
   (note: frozen counts as inactive, deleted as secondary)
 
      NR of irreps: 4
 
                 Total     No./Irrep 
      Irrep                  1   2   3   4
                            a1  b1  a2  b2
 
      INACTIVE       3       3   0   0   0
      ACTIVE         7       3   2   0   2
      SECONDARY     34      16   8   2   8
      BASIS         44      22  10   2  10
 
      RAS1           0       0   0   0   0
      RAS2           7       3   2   0   2
      RAS3           0       0   0   0   0
 
        MATRIX ELEMENTS WILL BE COMPUTED FOR THE FOLLOWING ONE-ELECTRON OPERATOR
 S, UNLESS ZERO BY SYMMETRY.
   (Herm=Hermitian, Anti=Antihermitian, Sing=Singlet operator, Trip=Triplet oper
 ator)
     MLTPL  1   1 (HERMSING)     MLTPL  1   2 (HERMSING)     MLTPL  1   3 (HERMSING)
     MLTPL  2   1 (HERMSING)     MLTPL  2   2 (HERMSING)     MLTPL  2   3 (HERMSING)
     MLTPL  2   4 (HERMSING)     MLTPL  2   5 (HERMSING)     MLTPL  2   6 (HERMSING)
     VELOCITY   1 (ANTISING)     VELOCITY   2 (ANTISING)     VELOCITY   3 (ANTISING)
 
       EIGENSTATES OF A SPIN-FREE HAMILTONIAN WILL BE COMPUTED BASED ON:
 
  A Hamiltonian matrix computed by RASSI.
  SO coupling elements will be added.
       EIGENSTATES OF SPIN-ORBIT HAMILTONIAN WILL BE COMPUTED
        MATRIX ELEMENTS OVER SPIN EIGENSTATES FOR:
     MLTPL  1   1 (HERMSING)     MLTPL  1   2 (HERMSING)     MLTPL  1   3 (HERMSING)
     MLTPL  2   1 (HERMSING)     MLTPL  2   2 (HERMSING)     MLTPL  2   3 (HERMSING)
     MLTPL  2   4 (HERMSING)     MLTPL  2   5 (HERMSING)     MLTPL  2   6 (HERMSING)
     VELOCITY   1 (ANTISING)     VELOCITY   2 (ANTISING)     VELOCITY   3 (ANTISING)
 
  Nr of states:                     2
 
[...]
                  YZ=  0.0000E+00              ZZ=  1.3435E+02
      In traceless form (Debye*Ang)
                  XX= -7.0799E+01              XY=  0.0000E+00              XZ=  0.0000E+00              YY= -7.0799E+01
                  YZ=  0.0000E+00              ZZ=  1.4160E+02
--
 
 
  Input file to MOLDEN was generated!
 
 
  Input file to MOLDEN was generated!
 
 
  Input file to MOLDEN was generated!
 
      Average orbitals are written to the RASORB file
      Natural orbitals for root   1 are written to the RASORB.1 file
      Natural orbitals for root   2 are written to the RASORB.2 file
      Spin density orbitals for root   1 are written to the SPDORB.1 file
      Spin density orbitals for root   2 are written to the SPDORB.2 file
 
--- Stop Module: rasscf at Thu Nov  7 13:47:28 2019 /rc=_RC_ALL_IS_WELL_ ---
*** files: lif.rasscf.molden lif.rasscf.molden.1 lif.rasscf.molden.2 lif.RasOrb lif.RasOrb.1 lif.RasOrb.2 lif.rasscf.h5 lif.SpdOrb.1 lif.SpdOrb.2 xmldump
    saved to directory /scratch/molcas_jobs/lif

>>> COPY lif.JobIph JOB001

*** symbolic link created: INPORB -> lif.RasOrb
--- Start Module: rassi at Thu Nov  7 13:47:28 2019 ---
 
()()()()()()()()()()()()()()()()()()()()()()()()()()()()()()()()()()()()()()()()()()()()()()()()()()

                                               &RASSI

                       only a single process is used, running in SERIAL mode
                       available to each process: 8.0 GB of memory, 1 thread
()()()()()()()()()()()()()()()()()()()()()()()()()()()()()()()()()()()()()()()()()()()()()()()()()()
 
 
      ********************************************************************************
      *                                                                              *
      *                             General data section                             *
      *                                                                              *
      ********************************************************************************
 
   Specific data for JOBIPH file 
 JOB001                                                                         
                                                  
   -------------------------------------
  IFEJOB= F
 
   Header from SEWARD:
                                                                               
        Integrals generated by seward 4.2.0  , Thu Nov  7 13:47:27 2019        
 
   CASSCF title (first line only):
       (No title given)                                                        
 
   STATE IRREP:                             1
   SPIN MULTIPLICITY:                       1
   ACTIVE ELECTRONS:                        6
   MAX RAS1 HOLES:                          0
   MAX RAS3 ELECTRONS:                      0
   NR OF CONFIG:                          142
  This wave function is of HISPIN type.
  However, the special handling for that case
  is suspected to be buggy. So the variable
  WFTYPE is set to GENERAL.
  Omega values will not be computed.
  Reason: Angular momentum integrals are missing.
 
 ###############################################################################
 ###############################################################################
 ###                                                                         ###
 ###                                                                         ###
 ###    Requested integrals are missing.                                     ###
 ###                                                                         ###
 ###                                                                         ###
 ###############################################################################
 ###############################################################################
  SO-Property name, and component:ANGMOM                       1
  This record cannot be found. Some of the requested
  properties cannot be computed. Suggested fix: Try
  recomputing one-electron integrals with keyword
  'OneOnly', and additional keywords for the
  properties needed.
  Also missing:ANGMOM                       2
  Also missing:ANGMOM                       3
 
   The following data are common to all the states:
   ------------------------------------------------
   (note: frozen counts as inactive, deleted as secondary)
 
      NR of irreps: 4
 
                 Total     No./Irrep 
      Irrep                  1   2   3   4
                            a1  b1  a2  b2
 
      INACTIVE       3       3   0   0   0
      ACTIVE         7       3   2   0   2
      SECONDARY     34      16   8   2   8
      BASIS         44      22  10   2  10
 
      RAS1           0       0   0   0   0
      RAS2           7       3   2   0   2
      RAS3           0       0   0   0   0
 
        MATRIX ELEMENTS WILL BE COMPUTED FOR THE FOLLOWING ONE-ELECTRON OPERATOR
 S, UNLESS ZERO BY SYMMETRY.
   (Herm=Hermitian, Anti=Antihermitian, Sing=Singlet operator, Trip=Triplet oper
 ator)
     MLTPL  1   1 (HERMSING)     MLTPL  1   2 (HERMSING)     MLTPL  1   3 (HERMSING)
     MLTPL  2   1 (HERMSING)     MLTPL  2   2 (HERMSING)     MLTPL  2   3 (HERMSING)
     MLTPL  2   4 (HERMSING)     MLTPL  2   5 (HERMSING)     MLTPL  2   6 (HERMSING)
     VELOCITY   1 (ANTISING)     VELOCITY   2 (ANTISING)     VELOCITY   3 (ANTISING)
 
       EIGENSTATES OF A SPIN-FREE HAMILTONIAN WILL BE COMPUTED BASED ON:
 
  A Hamiltonian matrix computed by RASSI.
  SO coupling elements will be added.
       EIGENSTATES OF SPIN-ORBIT HAMILTONIAN WILL BE COMPUTED
        MATRIX ELEMENTS OVER SPIN EIGENSTATES FOR:
     MLTPL  1   1 (HERMSING)     MLTPL  1   2 (HERMSING)     MLTPL  1   3 (HERMSING)
     MLTPL  2   1 (HERMSING)     MLTPL  2   2 (HERMSING)     MLTPL  2   3 (HERMSING)
     MLTPL  2   4 (HERMSING)     MLTPL  2   5 (HERMSING)     MLTPL  2   6 (HERMSING)
     VELOCITY   1 (ANTISING)     VELOCITY   2 (ANTISING)     VELOCITY   3 (ANTISING)
 
  Nr of states:                     2
 
   State:        1   2
  JobIph:        1   1
 Root nr:        1   2
 
  HAMILTONIAN MATRIX FOR THE ORIGINAL STATES:
 
  Diagonal, with energies
   -106.87651435   -106.84676293
 
      OVERLAP MATRIX FOR THE ORIGINAL STATES:
 
  Diagonal, with elements
      1.00000000      1.00000000
 
::    RASSI State    1     Total energy:   -106.87651435
::    RASSI State    2     Total energy:   -106.84676293
 
 
 
      ****************************************************************************************************
      *                                                                                                  *
      *                                         Spin-free section                                        *
      *                                                                                                  *
      ****************************************************************************************************
 
 
 
  SPIN-FREE ENERGIES:
 
 SF State    Relative EVAC(au)   Rel lowest level(eV)      D:o, cm**(-1)
 
     1            -106.87651435            0.000000               0.000
     2            -106.84676293            0.809577            6529.682
 
++ Dipole transition strengths (spin-free states):
   -----------------------------------------------
     for osc. strength at least  1.00000000E-05
 
      From   To        Osc. strength     Einstein coefficients Ax, Ay, Az (sec-1)    Total A (sec-1)
     -----------------------------------------------------------------------------------------------
         1    2       5.90513521E-04  0.00000000E+00  0.00000000E+00  1.67940195E+04  1.67940195E+04
     -----------------------------------------------------------------------------------------------
--
 
++ Velocity transition strengths (spin-free states):
   -------------------------------------------------
     for osc. strength at least  1.00000000E-05
 
      From   To        Osc. strength     Einstein coefficients Ax, Ay, Az (sec-1)    Total A (sec-1)
     -----------------------------------------------------------------------------------------------
         1    2       1.15130328E-04  0.00000000E+00  0.00000000E+00  3.27427045E+03  3.27427045E+03
     -----------------------------------------------------------------------------------------------
--
 --------------------------------------------------
 
 A comparison between the dipole oscillator strengths in 
 length and velocity gauge will be performed
 
 All dipole oscillator differences above the tolerance of 
  0.100000000000000       will be printed 
 
 Due to basis set deficiency these oscillator may be problematic 
 
 The tolerance is defined as ABS(1-O_l/O_v) 
 O_l : dipole oscillator strength in length gauge
 O_p : dipole oscillator strength in velocity gauge
 
 --------------------------------------------------
 
  Problematic transitions have been found
 
  From  To  Percent difference  Osc. strength (lenght)  Osc. strength (velocity)
  
 
  ---------------------------------------
 
         1    2       4.12908747E+02  5.90513521E-04  1.15130328E-04
 
 Number of problematic transitions =                      1
 
 
 
      ****************************************************************************************************
      *                                                                                                  *
      *                                    Special properties section                                    *
      *                                                                                                  *
      ****************************************************************************************************
 
 
 ###############################################################################
 ###############################################################################
 ###                                                                         ###
 ###                                                                         ###
 ###    RunFile label nBas                                                   ###
 ###    was used       85 times                                              ###
 ###                                                                         ###
 ###                                                                         ###
 ###############################################################################
 ###############################################################################
--- Stop Module: rassi at Thu Nov  7 13:47:29 2019 /rc=_RC_ALL_IS_WELL_ ---
*** files: lif.rassi.h5 xmldump
    saved to directory /scratch/molcas_jobs/lif

>>> RM JOB001

*** symbolic link created: INPORB -> lif.RasOrb
--- Start Module: alaska at Thu Nov  7 13:47:29 2019 ---
 
()()()()()()()()()()()()()()()()()()()()()()()()()()()()()()()()()()()()()()()()()()()()()()()()()()

                                              &ALASKA

                       only a single process is used, running in SERIAL mode
                       available to each process: 8.0 GB of memory, 1 thread
()()()()()()()()()()()()()()()()()()()()()()()()()()()()()()()()()()()()()()()()()()()()()()()()()()
 
[ process      0]: xquit (rc =     65): _INVOKED_OTHER_MODULE_
--- Stop Module: alaska at Thu Nov  7 13:47:29 2019 /rc=_RC_INVOKED_OTHER_MODULE_ ---
*** files: xmldump
    saved to directory /scratch/molcas_jobs/lif

*** symbolic link created: INPORB -> lif.RasOrb
--- Start Module: mclr at Thu Nov  7 13:47:29 2019 ---
 
()()()()()()()()()()()()()()()()()()()()()()()()()()()()()()()()()()()()()()()()()()()()()()()()()()

                                               &MCLR

                       only a single process is used, running in SERIAL mode
                       available to each process: 8.0 GB of memory, 1 thread
()()()()()()()()()()()()()()()()()()()()()()()()()()()()()()()()()()()()()()()()()()()()()()()()()()
 
 Ordinary integral handling
 No .RLXPT2  or MCKINT  , I hope that is OK
 Seward mode is assumed, reading perturbation from ONEINT  
 OrdInt status: non-squared
 
++   Wave function specifications:
     -----------------------------
 
     Number of closed shell electrons              6
     Number of electrons in active shells          6
     Max number of holes in RAS1 space             0
     Max number of electrons in RAS3 space         0
     Number of inactive orbitals                   3
     Number of active orbitals                     7
     Number of secondary orbitals                 34
     Spin quantum number                         0.0
     State symmetry                                1
     Number of roots                               2
     States considered                             1     2
     Weights                                   0.500 0.500
 
     Symmetry species                              1     2     3     4
     Skiped sym. species                           0     0     0     0
     Frozen orbitals                               0     0     0     0
     Inactive orbitals                             3     0     0     0
     Active orbitals                               3     2     0     2
     RAS1 orbitals                                 0     0     0     0
     RAS2 orbitals                                 3     2     0     2
     RAS3 orbitals                                 0     0     0     0
     Deleted orbitals                              0     0     0     0
     Number of basis functions                    22    10     2    10
     Number of Orbitals                           22    10     2    10
     Number of configurations                      142     118     112     118
     Number of combinations                      178   152   148   152
     Natural orbitals are used in the last CI
     RASSCF state energy =           -106.8765143535
     Size of explicit Hamiltonian in PCG:        100
--
 
     Convergence threshold=               1.0000E-04
     Max number of iterations in PCG:            200
     Lagrangian multipliers are calculated for states no.   1/  2
 
 
        Iteration       Delta       Res(kappa)  Res(CI)     DeltaK      DeltaC
            1          0.4709588   0.0009339   0.0237319   0.0004381   0.0000002
            2          0.1574239   0.0039439   0.0182438   0.0001434   0.0000031
            3          0.0086506   0.0019710   0.0052367   0.0000074   0.0000007
            4          0.0002418   0.0002052   0.0007442   0.0000002   0.0000000
            5          0.0000912   0.0003700   0.0003685   0.0000001   0.0000000
            6          0.0000078   0.0000707   0.0001522   0.0000000   0.0000000
      Perturbation no:    1 converged in    6 steps.
 
 
      The response parameters are written to the file RESP.
--- Stop Module: mclr at Thu Nov  7 13:47:29 2019 /rc=_RC_ALL_IS_WELL_ ---
*** files: xmldump
    saved to directory /scratch/molcas_jobs/lif

*** symbolic link created: INPORB -> lif.RasOrb
--- Start Module: alaska at Thu Nov  7 13:47:29 2019 ---
 
()()()()()()()()()()()()()()()()()()()()()()()()()()()()()()()()()()()()()()()()()()()()()()()()()()

                                              &ALASKA

                       only a single process is used, running in SERIAL mode
                       available to each process: 8.0 GB of memory, 1 thread
()()()()()()()()()()()()()()()()()()()()()()()()()()()()()()()()()()()()()()()()()()()()()()()()()()
 
 
                     Threshold for contributions to the gradient: .100E-06
 
 
                    ********************************************
                    * Symmetry Adapted Cartesian Displacements *
                    ********************************************
 
 
           Irreducible representation : a1 
           Basis function(s) of irrep: z                                                                               
 
 Basis Label        Type   Center Phase
   1   LI1          z         1     1
   2   F2           z         2     1
 
           Irreducible representation : b1 
           Basis function(s) of irrep: x, xz, Ry                                                                       
 
 Basis Label        Type   Center Phase
   3   LI1          x         1     1
   4   F2           x         2     1
 
           Irreducible representation : b2 
           Basis function(s) of irrep: y, yz, Rx                                                                       
 
 Basis Label        Type   Center Phase
   5   LI1          y         1     1
   6   F2           y         2     1
 
                     No automatic utilization of translational and rotational invariance of the energy is employed.
 
 Skipping Nuclear Charge Contribution
 Conventional ERI gradients!
 
 Wavefunction type: State average CASSCF
 
 
 *****************************************************
 *                                                   *
 *              CI derivative coupling               *
 *                                                   *
 *****************************************************
 
  Irreducible representation: a1 
 ---------------------------------------------------------
                     X             Y             Z        
 ---------------------------------------------------------
  LI1               0.00000000    0.00000000    0.00021082
  F2                0.00000000    0.00000000   -0.00021082
 ---------------------------------------------------
 
 
 ******************************************************
 *                                                    *
 *              CSF derivative coupling               *
 *                                                    *
 ******************************************************
 
  Irreducible representation: a1 
 ---------------------------------------------------------
                     X             Y             Z        
 ---------------------------------------------------------
  LI1               0.00000000    0.00000000    0.00129312
  F2                0.00000000    0.00000000    0.00097359
 ---------------------------------------------------
 
               Energy difference:  2.975142E-02
 
 *******************************************************
 *                                                     *
 *              Total derivative coupling              *
 *                                                     *
 *******************************************************
 
  Irreducible representation: a1 
 ---------------------------------------------------------
                     X             Y             Z        
 ---------------------------------------------------------
  LI1               0.00000000    0.00000000    0.00837909
  F2                0.00000000    0.00000000   -0.00611239
 ---------------------------------------------------
 
               norm:       0.0104
---------------------------------------------------------------------------------------------
  Nr.	 Label		Type		Offset		Length	   Atime	  Address
---------------------------------------------------------------------------------------------
  1	DENS        	REAL	       3361988	        2928          32	[0x4aa2780]
---------------------------------------------------------------------------------------------
Maximal available memory for Molcas = 7999997072
MEMORY WARNING: some memory allocations are not released!
--- Stop Module: alaska at Thu Nov  7 13:47:29 2019 /rc=_RC_ALL_IS_WELL_ ---
*** files: xmldump
    saved to directory /scratch/molcas_jobs/lif

>>> COPY lif.RasOrb /scratch/molcas_jobs/lif/backup/07_foreach/lif.72.RasOrb

>>> COPY lif.rasscf.molden /scratch/molcas_jobs/lif/backup/07_foreach/lif.rasscf.72.molden

>>> COPY lif.JobIph /scratch/molcas_jobs/lif/backup/07_foreach/lif.72.JobIph

>>> COPY lif.rassi.h5 /scratch/molcas_jobs/lif/backup/07_foreach/lif.rassi.72.h5

>>> END FOREACH

    Timing: Wall=265.30 User=151.76 System=33.95
